# vtk DataFile Version 3.0
vtk output
ASCII
DATASET UNSTRUCTURED_GRID
FIELD FieldData 2
TIME 1 1 double
2.16
CYCLE 1 1 int
108
POINTS 16705 double
0 0 0
0.00390625 0 0
0.0078125 0 0
0.0117188 0 0
0.015625 0 0
0.0195312 0 0
0.0234375 0 0
0.0273438 0 0
0.03125 0 0
0.0351562 0 0
0.0390625 0 0
0.0429688 0 0
0.046875 0 0
0.0507812 0 0
0.0546875 0 0
0.0585938 0 0
0.0625 0 0
0.0664062 0 0
0.0703125 0 0
0.0742188 0 0
0.078125 0 0
0.0820312 0 0
0.0859375 0 0
0.0898438 0 0
0.09375 0 0
0.0976562 0 0
0.101562 0 0
0.105469 0 0
0.109375 0 0
0.113281 0 0
0.117188 0 0
0.121094 0 0
0.125 0 0
0.128906 0 0
0.132812 0 0
0.136719 0 0
0.140625 0 0
0.144531 0 0
0.148438 0 0
0.152344 0 0
0.15625 0 0
0.160156 0 0
0.164062 0 0
0.167969 0 0
0.171875 0 0
0.175781 0 0
0.179688 0 0
0.183594 0 0
0.1875 0 0
0.191406 0 0
0.195312 0 0
0.199219 0 0
0.203125 0 0
0.207031 0 0
0.210938 0 0
0.214844 0 0
0.21875 0 0
0.222656 0 0
0.226562 0 0
0.230469 0 0
0.234375 0 0
0.238281 0 0
0.242188 0 0
0.246094 0 0
0.25 0 0
0 0.00390625 0
0.00390625 0.00390625 0
0.0078125 0.00390625 0
0.0117188 0.00390625 0
0.015625 0.00390625 0
0.0195312 0.00390625 0
0.0234375 0.00390625 0
0.0273438 0.00390625 0
0.03125 0.00390625 0
0.0351562 0.00390625 0
0.0390625 0.00390625 0
0.0429688 0.00390625 0
0.046875 0.00390625 0
0.0507812 0.00390625 0
0.0546875 0.00390625 0
0.0585938 0.00390625 0
0.0625 0.00390625 0
0.0664062 0.00390625 0
0.0703125 0.00390625 0
0.0742188 0.00390625 0
0.078125 0.00390625 0
0.0820312 0.00390625 0
0.0859375 0.00390625 0
0.0898438 0.00390625 0
0.09375 0.00390625 0
0.0976562 0.00390625 0
0.101562 0.00390625 0
0.105469 0.00390625 0
0.109375 0.00390625 0
0.113281 0.00390625 0
0.117188 0.00390625 0
0.121094 0.00390625 0
0.125 0.00390625 0
0.128906 0.00390625 0
0.132812 0.00390625 0
0.136719 0.00390625 0
0.140625 0.00390625 0
0.144531 0.00390625 0
0.148438 0.00390625 0
0.152344 0.00390625 0
0.15625 0.00390625 0
0.160156 0.00390625 0
0.164062 0.00390625 0
0.167969 0.00390625 0
0.171875 0.00390625 0
0.175781 0.00390625 0
0.179688 0.00390625 0
0.183594 0.00390625 0
0.1875 0.00390625 0
0.191406 0.00390625 0
0.195312 0.00390625 0
0.199219 0.00390625 0
0.203125 0.00390625 0
0.207031 0.00390625 0
0.210938 0.00390625 0
0.214844 0.00390625 0
0.21875 0.00390625 0
0.222656 0.00390625 0
0.226562 0.00390625 0
0.230469 0.00390625 0
0.234375 0.00390625 0
0.238281 0.00390625 0
0.242188 0.00390625 0
0.246094 0.00390625 0
0.25 0.00390625 0
0 0.0078125 0
0.00390625 0.0078125 0
0.0078125 0.0078125 0
0.0117188 0.0078125 0
0.015625 0.0078125 0
0.0195312 0.0078125 0
0.0234375 0.0078125 0
0.0273438 0.0078125 0
0.03125 0.0078125 0
0.0351562 0.0078125 0
0.0390625 0.0078125 0
0.0429688 0.0078125 0
0.046875 0.0078125 0
0.0507812 0.0078125 0
0.0546875 0.0078125 0
0.0585938 0.0078125 0
0.0625 0.0078125 0
0.0664062 0.0078125 0
0.0703125 0.0078125 0
0.0742188 0.0078125 0
0.078125 0.0078125 0
0.0820312 0.0078125 0
0.0859375 0.0078125 0
0.0898438 0.0078125 0
0.09375 0.0078125 0
0.0976562 0.0078125 0
0.101562 0.0078125 0
0.105469 0.0078125 0
0.109375 0.0078125 0
0.113281 0.0078125 0
0.117188 0.0078125 0
0.121094 0.0078125 0
0.125 0.0078125 0
0.128906 0.0078125 0
0.132812 0.0078125 0
0.136719 0.0078125 0
0.140625 0.0078125 0
0.144531 0.0078125 0
0.148438 0.0078125 0
0.152344 0.0078125 0
0.15625 0.0078125 0
0.160156 0.0078125 0
0.164062 0.0078125 0
0.167969 0.0078125 0
0.171875 0.0078125 0
0.175781 0.0078125 0
0.179688 0.0078125 0
0.183594 0.0078125 0
0.1875 0.0078125 0
0.191406 0.0078125 0
0.195312 0.0078125 0
0.199219 0.0078125 0
0.203125 0.0078125 0
0.207031 0.0078125 0
0.210938 0.0078125 0
0.214844 0.0078125 0
0.21875 0.0078125 0
0.222656 0.0078125 0
0.226562 0.0078125 0
0.230469 0.0078125 0
0.234375 0.0078125 0
0.238281 0.0078125 0
0.242188 0.0078125 0
0.246094 0.0078125 0
0.25 0.0078125 0
0 0.0117188 0
0.00390625 0.0117188 0
0.0078125 0.0117188 0
0.0117188 0.0117188 0
0.015625 0.0117188 0
0.0195312 0.0117188 0
0.0234375 0.0117188 0
0.0273438 0.0117188 0
0.03125 0.0117188 0
0.0351562 0.0117188 0
0.0390625 0.0117188 0
0.0429688 0.0117188 0
0.046875 0.0117188 0
0.0507812 0.0117188 0
0.0546875 0.0117188 0
0.0585938 0.0117188 0
0.0625 0.0117188 0
0.0664062 0.0117188 0
0.0703125 0.0117188 0
0.0742188 0.0117188 0
0.078125 0.0117188 0
0.0820312 0.0117188 0
0.0859375 0.0117188 0
0.0898438 0.0117188 0
0.09375 0.0117188 0
0.0976562 0.0117188 0
0.101562 0.0117188 0
0.105469 0.0117188 0
0.109375 0.0117188 0
0.113281 0.0117188 0
0.117188 0.0117188 0
0.121094 0.0117188 0
0.125 0.0117188 0
0.128906 0.0117188 0
0.132812 0.0117188 0
0.136719 0.0117188 0
0.140625 0.0117188 0
0.144531 0.0117188 0
0.148438 0.0117188 0
0.152344 0.0117188 0
0.15625 0.0117188 0
0.160156 0.0117188 0
0.164062 0.0117188 0
0.167969 0.0117188 0
0.171875 0.0117188 0
0.175781 0.0117188 0
0.179688 0.0117188 0
0.183594 0.0117188 0
0.1875 0.0117188 0
0.191406 0.0117188 0
0.195312 0.0117188 0
0.199219 0.0117188 0
0.203125 0.0117188 0
0.207031 0.0117188 0
0.210938 0.0117188 0
0.214844 0.0117188 0
0.21875 0.0117188 0
0.222656 0.0117188 0
0.226562 0.0117188 0
0.230469 0.0117188 0
0.234375 0.0117188 0
0.238281 0.0117188 0
0.242188 0.0117188 0
0.246094 0.0117188 0
0.25 0.0117188 0
0 0.015625 0
0.00390625 0.015625 0
0.0078125 0.015625 0
0.0117188 0.015625 0
0.015625 0.015625 0
0.0195312 0.015625 0
0.0234375 0.015625 0
0.0273438 0.015625 0
0.03125 0.015625 0
0.0351562 0.015625 0
0.0390625 0.015625 0
0.0429688 0.015625 0
0.046875 0.015625 0
0.0507812 0.015625 0
0.0546875 0.015625 0
0.0585938 0.015625 0
0.0625 0.015625 0
0.0664062 0.015625 0
0.0703125 0.015625 0
0.0742188 0.015625 0
0.078125 0.015625 0
0.0820312 0.015625 0
0.0859375 0.015625 0
0.0898438 0.015625 0
0.09375 0.015625 0
0.0976562 0.015625 0
0.101562 0.015625 0
0.105469 0.015625 0
0.109375 0.015625 0
0.113281 0.015625 0
0.117188 0.015625 0
0.121094 0.015625 0
0.125 0.015625 0
0.128906 0.015625 0
0.132812 0.015625 0
0.136719 0.015625 0
0.140625 0.015625 0
0.144531 0.015625 0
0.148438 0.015625 0
0.152344 0.015625 0
0.15625 0.015625 0
0.160156 0.015625 0
0.164062 0.015625 0
0.167969 0.015625 0
0.171875 0.015625 0
0.175781 0.015625 0
0.179688 0.015625 0
0.183594 0.015625 0
0.1875 0.015625 0
0.191406 0.015625 0
0.195312 0.015625 0
0.199219 0.015625 0
0.203125 0.015625 0
0.207031 0.015625 0
0.210938 0.015625 0
0.214844 0.015625 0
0.21875 0.015625 0
0.222656 0.015625 0
0.226562 0.015625 0
0.230469 0.015625 0
0.234375 0.015625 0
0.238281 0.015625 0
0.242188 0.015625 0
0.246094 0.015625 0
0.25 0.015625 0
0 0.0195312 0
0.00390625 0.0195312 0
0.0078125 0.0195312 0
0.0117188 0.0195312 0
0.015625 0.0195312 0
0.0195312 0.0195312 0
0.0234375 0.0195312 0
0.0273438 0.0195312 0
0.03125 0.0195312 0
0.0351562 0.0195312 0
0.0390625 0.0195312 0
0.0429688 0.0195312 0
0.046875 0.0195312 0
0.0507812 0.0195312 0
0.0546875 0.0195312 0
0.0585938 0.0195312 0
0.0625 0.0195312 0
0.0664062 0.0195312 0
0.0703125 0.0195312 0
0.0742188 0.0195312 0
0.078125 0.0195312 0
0.0820312 0.0195312 0
0.0859375 0.0195312 0
0.0898438 0.0195312 0
0.09375 0.0195312 0
0.0976562 0.0195312 0
0.101562 0.0195312 0
0.105469 0.0195312 0
0.109375 0.0195312 0
0.113281 0.0195312 0
0.117188 0.0195312 0
0.121094 0.0195312 0
0.125 0.0195312 0
0.128906 0.0195312 0
0.132812 0.0195312 0
0.136719 0.0195312 0
0.140625 0.0195312 0
0.144531 0.0195312 0
0.148438 0.0195312 0
0.152344 0.0195312 0
0.15625 0.0195312 0
0.160156 0.0195312 0
0.164062 0.0195312 0
0.167969 0.0195312 0
0.171875 0.0195312 0
0.175781 0.0195312 0
0.179688 0.0195312 0
0.183594 0.0195312 0
0.1875 0.0195312 0
0.191406 0.0195312 0
0.195312 0.0195312 0
0.199219 0.0195312 0
0.203125 0.0195312 0
0.207031 0.0195312 0
0.210938 0.0195312 0
0.214844 0.0195312 0
0.21875 0.0195312 0
0.222656 0.0195312 0
0.226562 0.0195312 0
0.230469 0.0195312 0
0.234375 0.0195312 0
0.238281 0.0195312 0
0.242188 0.0195312 0
0.246094 0.0195312 0
0.25 0.0195312 0
0 0.0234375 0
0.00390625 0.0234375 0
0.0078125 0.0234375 0
0.0117188 0.0234375 0
0.015625 0.0234375 0
0.0195312 0.0234375 0
0.0234375 0.0234375 0
0.0273438 0.0234375 0
0.03125 0.0234375 0
0.0351562 0.0234375 0
0.0390625 0.0234375 0
0.0429688 0.0234375 0
0.046875 0.0234375 0
0.0507812 0.0234375 0
0.0546875 0.0234375 0
0.0585938 0.0234375 0
0.0625 0.0234375 0
0.0664062 0.0234375 0
0.0703125 0.0234375 0
0.0742188 0.0234375 0
0.078125 0.0234375 0
0.0820312 0.0234375 0
0.0859375 0.0234375 0
0.0898438 0.0234375 0
0.09375 0.0234375 0
0.0976562 0.0234375 0
0.101562 0.0234375 0
0.105469 0.0234375 0
0.109375 0.0234375 0
0.113281 0.0234375 0
0.117188 0.0234375 0
0.121094 0.0234375 0
0.125 0.0234375 0
0.128906 0.0234375 0
0.132812 0.0234375 0
0.136719 0.0234375 0
0.140625 0.0234375 0
0.144531 0.0234375 0
0.148438 0.0234375 0
0.152344 0.0234375 0
0.15625 0.0234375 0
0.160156 0.0234375 0
0.164062 0.0234375 0
0.167969 0.0234375 0
0.171875 0.0234375 0
0.175781 0.0234375 0
0.179688 0.0234375 0
0.183594 0.0234375 0
0.1875 0.0234375 0
0.191406 0.0234375 0
0.195312 0.0234375 0
0.199219 0.0234375 0
0.203125 0.0234375 0
0.207031 0.0234375 0
0.210938 0.0234375 0
0.214844 0.0234375 0
0.21875 0.0234375 0
0.222656 0.0234375 0
0.226562 0.0234375 0
0.230469 0.0234375 0
0.234375 0.0234375 0
0.238281 0.0234375 0
0.242188 0.0234375 0
0.246094 0.0234375 0
0.25 0.0234375 0
0 0.0273438 0
0.00390625 0.0273438 0
0.0078125 0.0273438 0
0.0117188 0.0273438 0
0.015625 0.0273438 0
0.0195312 0.0273438 0
0.0234375 0.0273438 0
0.0273438 0.0273438 0
0.03125 0.0273438 0
0.0351562 0.0273438 0
0.0390625 0.0273438 0
0.0429688 0.0273438 0
0.046875 0.0273438 0
0.0507812 0.0273438 0
0.0546875 0.0273438 0
0.0585938 0.0273438 0
0.0625 0.0273438 0
0.0664062 0.0273438 0
0.0703125 0.0273438 0
0.0742188 0.0273438 0
0.078125 0.0273438 0
0.0820312 0.0273438 0
0.0859375 0.0273438 0
0.0898438 0.0273438 0
0.09375 0.0273438 0
0.0976562 0.0273438 0
0.101562 0.0273438 0
0.105469 0.0273438 0
0.109375 0.0273438 0
0.113281 0.0273438 0
0.117188 0.0273438 0
0.121094 0.0273438 0
0.125 0.0273438 0
0.128906 0.0273438 0
0.132812 0.0273438 0
0.136719 0.0273438 0
0.140625 0.0273438 0
0.144531 0.0273438 0
0.148438 0.0273438 0
[...]
CELL_DATA 16384
SCALARS solution double
LOOKUP_TABLE default
2.0867
2.08689
2.08686
2.08654
2.08604
2.08552
2.08497
2.0842
2.08349
2.08276
2.08259
2.08262
2.0828
2.08298
2.08314
2.08302
2.08232
2.08148
2.0806
2.07958
2.07886
2.07854
2.0787
2.07838
2.07762
2.07746
2.07732
2.07749
2.07903
2.0807
2.08113
2.08117
2.08101
2.08063
2.07988
2.07907
2.07835
2.0779
2.07775
2.07767
2.07749
2.07742
2.07733
2.07788
2.07888
2.07984
2.08107
2.08209
2.08278
2.08323
2.08328
2.08341
2.08359
2.08361
2.08347
2.08349
2.08392
2.08409
2.08467
2.08504
2.08538
2.0858
2.08618
2.08645
1.99575
1.99591
1.99575
1.99547
1.99509
1.99473
1.99434
1.99418
1.99405
1.9946
1.9968
1.99918
2.00127
2.00399
2.0079
2.01248
2.01831
2.02526
2.03261
2.03764
2.04228
2.04716
2.05162
2.05703
2.06321
2.07159
2.07755
2.07825
2.08119
2.08461
2.08543
2.08556
2.08519
2.08414
2.08212
2.07992
2.07788
2.07519
2.07048
2.06398
2.05723
2.04931
2.0395
2.03621
2.03343
2.02896
2.02155
2.01434
2.00883
2.00463
2.00165
2.00046
1.99973
1.99839
1.99753
1.99604
1.99452
1.99417
1.99429
1.99433
1.99462
1.99494
1.99511
1.99546
1.91303
1.91293
1.91271
1.91263
1.91253
1.91246
1.91251
1.9127
1.91323
1.9146
1.91798
1.92097
1.92288
1.92675
1.93317
1.9408
1.94952
1.95837
1.96866
1.97618
1.97996
1.98794
1.99986
2.01294
2.02366
2.0364
2.0472
2.05667
2.06728
2.07746
2.08527
2.08531
2.08476
2.08271
2.07341
2.0634
2.05695
2.04871
2.03844
2.02765
2.01458
1.99968
1.98769
1.98019
1.97465
1.96609
1.95491
1.94449
1.93507
1.92767
1.92321
1.92152
1.92069
1.91919
1.91816
1.91663
1.91418
1.91322
1.91307
1.91304
1.91303
1.91303
1.91308
1.91311
1.89987
1.8998
1.89969
1.89959
1.89957
1.89961
1.89974
1.9001
1.90134
1.90609
1.91258
1.91869
1.92359
1.92756
1.93221
1.9373
1.94266
1.94905
1.95751
1.96472
1.97114
1.97858
1.98701
1.99481
2.00167
2.01128
2.02084
2.03885
2.05648
2.07132
2.08484
2.08506
2.08446
2.08157
2.06677
2.05025
2.04
2.02848
2.01671
2.0075
1.99811
1.9899
1.98188
1.97268
1.96491
1.95661
1.94794
1.94132
1.93509
1.92901
1.92466
1.92117
1.91744
1.91355
1.91049
1.90749
1.9042
1.90166
1.90041
1.90014
1.89993
1.89986
1.89992
1.89995
1.88732
1.8874
1.88748
1.88754
1.88757
1.88761
1.88779
1.88839
1.89031
1.89732
1.90535
1.91182
1.91742
1.92194
1.92596
1.93106
1.93773
1.94554
1.95419
1.96192
1.97104
1.98035
1.99066
2.00141
2.01069
2.02109
2.03306
2.0545
2.07001
2.08127
2.09233
2.09212
2.09164
2.09031
2.07881
2.0623
2.05199
2.0399
2.02602
2.01467
2.00331
1.99203
1.98138
1.97124
1.96179
1.95339
1.94481
1.93736
1.93078
1.92496
1.9207
1.9159
1.91079
1.9058
1.90175
1.89809
1.89406
1.89024
1.88797
1.88732
1.88703
1.88697
1.88707
1.88723
1.87702
1.87736
1.8776
1.87783
1.87792
1.87794
1.87807
1.87958
1.88371
1.89087
1.89795
1.90296
1.90766
1.91348
1.91997
1.92767
1.93585
1.94432
1.95345
1.96222
1.97214
1.9826
1.99402
2.00653
2.0169
2.02943
2.04478
2.06632
2.08126
2.09204
2.10281
2.10257
2.1022
2.10141
2.09121
2.07359
2.06191
2.04894
2.03341
2.02051
2.00805
1.99553
1.98394
1.97296
1.9625
1.95286
1.9436
1.9352
1.92701
1.91966
1.91401
1.90853
1.90283
1.89766
1.89327
1.88939
1.88519
1.88095
1.87792
1.87662
1.87633
1.87638
1.87653
1.87674
1.86747
1.86787
1.86822
1.86848
1.86866
1.86879
1.8689
1.87179
1.87814
1.8853
1.89175
1.89686
1.90214
1.90903
1.9168
1.92555
1.93433
1.94375
1.95342
1.96335
1.97416
1.9853
1.99741
2.01
2.02107
2.03721
2.05442
2.07416
2.08794
2.09911
2.1097
2.10984
2.10984
2.10956
2.1003
2.08172
2.06886
2.05531
2.03919
2.02585
2.01297
1.99972
1.98708
1.97525
1.9642
1.95328
1.94338
1.93419
1.92547
1.91714
1.91002
1.90331
1.89663
1.89068
1.88553
1.88118
1.87689
1.87255
1.86901
1.86722
1.86678
1.8668
1.86695
1.86717
1.85963
1.85995
1.86027
1.86056
1.86089
1.86122
1.86202
1.86656
1.87375
1.88072
1.88697
1.8922
1.89848
1.90654
1.91492
1.92427
1.93376
1.94424
1.95459
1.96521
1.97724
1.98902
2.00158
2.01463
2.0279
2.04711
2.06388
2.08104
2.0941
2.10624
2.1176
2.1187
2.11858
2.11778
2.10938
2.0902
2.07668
2.06285
2.04675
2.03276
2.01883
2.00448
1.99041
1.97808
1.96655
1.95485
1.9442
1.93422
1.92497
1.91597
1.90763
1.89971
1.89227
1.8857
1.87991
1.87525
1.87096
1.86664
1.86284
1.86033
1.85954
1.85949
1.85943
1.85945
1.8523
1.85247
1.85271
1.85298
1.85342
1.85405
1.85584
1.86214
1.8697
1.87677
1.88309
1.88874
1.89598
1.9047
1.9136
1.92353
1.9335
1.94514
1.95612
1.96748
1.98033
1.99257
2.00519
2.01965
2.03622
2.05526
2.07091
2.08654
2.10012
2.11368
2.12574
2.12761
2.12727
2.12552
2.11812
2.09887
2.08454
2.07027
2.05396
2.03894
2.02396
2.00885
1.994
1.98121
1.96929
1.95703
1.94537
1.93459
1.9245
1.91473
1.90538
1.89672
1.88891
1.88184
1.87552
1.87043
1.86603
1.86163
1.85759
1.85451
1.85321
1.85287
1.8525
1.8523
1.84665
1.84667
1.84677
1.84699
1.84744
1.84833
1.85148
1.8592
1.86692
1.87392
1.88047
1.88705
1.89532
1.90417
1.9132
1.92333
1.93353
1.94587
1.95735
1.96969
1.98356
1.99675
2.01049
2.02648
2.04446
2.06275
2.07752
2.09303
2.1079
2.12232
2.13377
2.13551
2.1351
2.13344
2.12681
2.10766
2.09266
2.07782
2.06123
2.04542
2.02952
2.01368
1.99785
1.98429
1.97176
1.95881
1.94661
1.93496
1.92391
1.91375
1.90415
1.89533
1.88727
1.87963
1.87272
1.86709
1.86238
1.85781
1.85354
1.85
1.84817
1.84749
1.84701
1.84674
1.84138
1.84143
1.84151
1.84169
1.84221
1.84352
1.8479
1.85624
1.86409
1.87101
1.87772
1.88508
1.89436
1.9035
1.91295
1.92354
1.93407
1.94706
1.95893
1.97252
1.98769
2.00198
2.01709
2.03472
2.0525
2.06986
2.08443
2.10059
2.11656
2.13106
2.14151
2.14281
2.14241
2.14102
2.13544
2.11674
2.10098
2.08544
2.06892
2.05255
2.03568
2.01916
2.00221
1.98744
1.97394
1.96031
1.94774
1.9356
1.92395
1.91324
1.90318
1.89398
1.88545
1.87727
1.86976
1.86348
1.85826
1.85336
1.84882
1.84494
1.84268
1.84189
1.84159
1.84143
1.83748
1.83769
1.83786
1.83802
1.83841
1.84018
1.84605
1.85427
1.8618
1.8686
1.87552
1.88338
1.89285
1.90231
1.91262
1.92403
1.93561
1.94935
1.96212
1.97692
1.99287
2.00793
2.02386
2.04156
2.05921
2.07659
2.09202
2.10895
2.12554
2.13962
2.14908
2.15004
2.14964
2.14836
2.1436
2.12563
2.10909
2.09287
2.07625
2.05971
2.04237
2.02543
2.00797
1.99205
1.97719
1.96238
1.94919
1.93648
1.92437
1.91316
1.90262
1.89289
1.88396
1.87551
1.86771
1.86093
1.85503
1.84969
1.84486
1.84072
1.83817
1.83737
1.83733
1.83738
1.83423
1.83455
1.83476
1.8349
1.83527
1.8374
1.84453
1.85241
1.85936
1.866
1.87333
1.88186
1.89155
1.90147
1.91271
1.92498
1.93759
1.95198
1.96571
1.98152
1.99786
2.01361
2.03011
2.04744
2.06518
2.08334
2.10067
2.11814
2.13447
2.14734
2.15602
2.15718
2.15681
2.15573
2.15128
2.13395
2.11713
2.10046
2.08333
2.06645
2.04905
2.03189
2.01407
1.99747
1.98163
1.96569
1.9515
1.93796
1.92512
1.91329
1.90217
1.89188
1.8824
1.87368
1.86566
1.85851
1.85227
1.84672
1.84173
1.83737
1.83452
1.8337
1.83379
1.83396
1.83162
1.8319
1.83207
1.83223
1.83278
1.83548
1.84321
1.85081
1.85764
1.86442
1.8722
1.88119
1.89124
1.90165
1.91357
1.92642
1.93995
1.95484
1.96959
1.98537
2.00147
2.01806
2.03506
2.05281
2.0712
2.09037
2.10891
2.12639
2.14227
2.15452
2.16285
2.16425
2.16402
2.16303
2.15864
2.14149
2.1249
2.10778
2.08986
2.0724
2.05466
2.03735
2.01946
2.00259
1.98633
1.96953
1.95426
1.93976
1.92618
1.91362
1.90199
1.89133
1.88141
1.87251
1.86443
1.85716
1.85066
1.84492
1.8398
1.83526
1.83208
1.831
1.83107
1.83128
1.82823
1.82842
1.82856
1.82871
1.82942
1.83314
1.84123
1.84891
1.85591
1.86317
1.87188
1.88162
1.89207
1.90304
1.91546
1.92862
1.94269
1.95767
1.97257
1.98799
2.00425
2.02193
2.03962
2.05858
2.07799
2.09723
2.11589
2.1332
2.14898
2.16157
2.17014
2.17159
2.17133
2.1702
2.16524
2.1482
2.13195
2.11473
2.09618
2.07807
2.06006
2.04232
2.02416
2.00707
1.99031
1.97294
1.95681
1.94156
1.92742
1.91442
1.90246
1.89161
1.88132
1.87211
1.8637
1.85598
1.84893
1.8428
1.83744
1.83271
1.8292
1.82787
1.82789
1.82803
1.82502
1.82518
1.82531
1.82554
1.82646
1.83125
1.83967
1.8474
1.85447
1.86229
1.87177
1.8821
1.89312
1.90488
1.9178
1.93122
1.9455
1.96035
1.97516
1.9907
2.00743
2.02613
2.0447
2.06541
2.08541
2.10382
2.12187
2.13896
2.15485
2.16802
2.17739
2.17927
2.17893
2.17728
2.17139
2.15414
2.13816
2.12116
2.10248
2.08382
2.06545
2.04713
2.02844
2.01094
1.99375
1.97614
1.95958
1.94398
1.92965
1.91651
1.90402
1.89265
1.88164
1.87168
1.86276
1.85453
1.84703
1.8406
1.83508
1.83028
1.82659
1.82507
1.82501
1.82498
1.82191
1.82205
1.82228
1.82276
1.82393
1.82966
1.83849
1.84626
1.85339
1.86171
1.87165
1.88215
1.8936
1.90606
1.91945
1.9332
1.94784
1.96305
1.97818
1.99424
2.01207
2.03183
2.05088
2.07219
2.09228
2.11024
2.12788
2.14473
2.16054
2.17404
2.18412
2.18648
2.18602
2.18405
2.1778
2.16016
2.14405
2.12743
2.10915
2.0905
2.07171
2.05269
2.03316
2.015
1.99734
1.97964
1.96302
1.94733
1.93266
1.91918
1.90579
1.89348
1.88171
1.8709
1.86136
1.85284
1.84512
1.8385
1.83287
1.82795
1.82404
1.82224
1.82199
1.82188
1.81927
1.81947
1.81986
1.82061
1.8221
1.82862
1.83777
1.84538
1.85263
1.86131
1.87143
1.8821
1.89377
1.90662
1.92046
1.93471
1.95012
1.9662
1.98222
1.99901
2.01782
2.03819
2.05705
2.07784
2.09778
2.11621
2.13443
2.15141
2.16684
2.18006
2.19005
2.19256
2.19238
2.19032
2.18426
2.16665
2.15026
2.13385
2.11575
2.09711
2.07796
2.05829
2.03815
2.01967
2.00165
1.98359
1.96669
1.95043
1.93515
1.92109
1.90695
1.89384
1.88155
1.87023
1.86018
1.85135
1.84349
1.83673
1.83096
1.82591
1.82184
1.81978
1.81935
1.81923
1.81723
1.81753
1.81808
1.81903
1.82092
1.82819
1.8372
1.84442
1.85187
1.86096
1.87121
1.88216
1.8942
1.90749
1.92177
1.93665
1.9529
1.96954
1.98656
2.00413
2.02357
2.04442
2.06278
2.08267
2.10238
2.12157
2.1408
2.15846
2.17381
2.18646
2.19546
2.19737
2.19732
2.19577
2.19075
2.17352
2.15703
2.14043
2.12202
2.1029
2.08334
2.06349
2.04313
2.02458
2.00626
1.98763
1.97015
1.95307
1.93666
1.92201
1.9075
1.89399
1.88135
1.86979
1.85953
1.85053
1.84253
1.83556
1.8296
1.82441
1.82017
1.81785
1.81725
1.81714
1.81599
1.81639
1.81703
1.81807
1.8202
1.8278
1.83664
1.84361
1.85124
1.86054
1.871
1.88227
1.89484
1.90867
1.92349
1.93903
1.95585
1.97283
1.99038
2.00846
2.02847
2.04958
2.06777
2.08751
2.10749
2.127
2.1466
2.16489
2.18029
2.19283
2.20099
2.20178
2.20151
2.20056
2.19641
2.17995
2.16362
2.14678
2.12775
2.10804
2.08802
2.06799
2.04764
2.02897
2.01023
1.99121
1.97295
1.95512
1.93779
1.92244
1.90773
1.89422
1.88169
1.87031
1.86009
1.85098
1.84275
1.8355
1.82924
1.82382
1.81933
1.81672
1.81597
1.81586
1.81523
1.81567
1.81626
1.81729
1.81961
1.82727
1.83616
1.84311
1.85106
1.86059
1.87114
1.88268
1.89571
1.90996
1.92522
1.94131
1.95858
1.97591
1.99361
2.01186
2.03216
2.05362
2.07259
2.09326
2.11372
2.13321
2.15216
2.1702
2.18564
2.19861
2.20662
2.20664
2.20601
2.20501
2.20157
2.18564
2.16941
2.15246
2.13307
2.1131
2.09258
2.07223
2.05162
2.03227
2.013
1.99383
1.97495
1.95664
1.93899
1.92307
1.90844
1.89527
1.88305
1.87185
1.86147
1.85208
1.84347
1.83583
1.82928
1.82356
1.81882
1.81601
1.81518
1.81512
1.81488
1.81523
1.8157
1.81665
1.81926
1.827
1.83575
1.84286
1.85123
1.86115
1.87195
1.88376
1.89706
1.9114
1.92681
1.94327
1.96082
1.97832
1.9963
2.01502
2.03566
2.05762
2.07758
2.09936
2.12036
2.13978
2.15794
2.17504
2.19004
2.20322
2.21161
2.21199
2.21146
2.21006
2.20661
2.19069
2.17435
2.15766
2.13837
2.11842
2.09737
2.07632
2.05513
2.0352
2.01533
1.99586
1.97672
1.95821
1.94072
1.92499
1.91057
1.89721
1.88474
1.87321
1.86241
1.85256
1.84364
1.83579
1.82917
1.82338
1.81855
1.81567
1.81481
1.81477
1.81454
1.81475
1.81507
1.81597
1.81869
1.8268
1.83548
1.84285
1.85175
1.86213
1.87336
1.88553
1.89894
1.91313
1.92837
1.94475
1.96227
1.98023
1.99895
2.01838
2.03936
2.06164
2.08238
2.10479
2.12599
2.14558
2.16345
2.17997
2.1941
2.20698
2.21585
2.21695
2.21705
2.21583
2.21187
2.19538
2.17899
2.16255
2.14346
2.12365
2.10218
2.0807
2.05905
2.03839
2.01793
1.99812
1.97897
1.96088
1.94377
1.92789
1.91293
1.89891
1.88575
1.87351
1.86221
1.85207
1.84303
1.83518
1.82858
1.82285
1.8181
1.81531
1.81451
1.81447
1.8141
1.8142
1.8144
1.81508
1.81792
1.82668
1.83519
1.84287
1.85226
1.86306
1.87475
1.88722
1.90069
1.91485
1.93007
1.94631
1.96366
1.98194
2.00132
2.0215
2.04312
2.06551
2.08642
2.10893
2.12994
2.14979
2.16784
2.18442
2.19834
2.21101
2.22003
2.22149
2.22207
2.22108
2.21713
2.20003
2.18384
2.16739
2.14817
2.12842
2.10693
2.08549
2.06366
2.04254
2.02197
2.0022
1.98293
1.96476
1.94719
1.93051
1.91459
1.89977
1.886
1.87338
1.86183
1.85149
1.84234
1.83443
1.82784
1.82209
1.81737
1.81473
1.81408
1.8141
1.81396
1.81389
1.81392
1.81434
1.81769
1.82658
1.835
1.84285
1.85246
1.86341
1.87526
1.88792
1.90161
1.91608
1.93167
1.94818
1.96557
1.98388
2.0037
2.02436
2.04651
2.06878
2.08993
2.11227
2.13282
2.15269
2.17107
2.18825
2.20279
2.21592
2.22475
2.22564
2.22581
2.22504
2.22168
2.20496
2.189
2.17227
2.15257
2.13285
2.11147
2.09033
2.0688
2.04781
2.0273
2.00746
1.98751
1.96848
1.94989
1.93234
1.91571
1.90037
1.88621
1.87337
1.8617
1.8513
1.84215
1.83433
1.82781
1.82201
1.81722
1.81459
1.81403
1.81405
1.814
1.81387
1.81381
1.81398
1.81792
1.8267
1.83501
1.84286
1.85236
1.86315
1.87486
1.88767
1.90168
1.91667
1.93284
1.95002
1.96793
1.98674
2.00675
2.02737
2.04954
2.07152
2.09284
2.11498
2.1355
2.15548
2.17445
2.19252
2.20772
2.22122
2.22955
2.2295
2.229
2.22823
2.22557
2.20922
2.19363
2.17666
2.15664
2.13696
2.11573
2.09505
2.07405
2.05317
2.03229
2.01182
1.99092
1.97103
1.95168
1.9337
1.91678
1.90121
1.88693
1.87414
1.86264
1.8524
1.84331
1.83551
1.82896
1.82309
1.81807
1.81513
1.8143
1.81417
1.81364
1.81363
1.81371
1.81386
1.81833
1.82715
1.83528
1.84297
1.85238
1.86301
1.87465
1.88754
1.90176
1.91716
1.93388
1.95175
1.97047
1.99011
2.01032
2.03095
2.05288
2.07432
2.09567
2.11772
2.13854
2.15935
2.17919
2.19757
2.21251
2.2257
2.23346
2.23321
2.23247
2.23137
2.22897
2.21235
2.19679
2.18002
2.16
2.14036
2.11939
2.09913
2.07842
2.0573
2.03566
2.01442
1.99285
1.97272
1.95316
1.93501
1.91835
1.90313
1.88905
1.87629
1.86469
1.85432
1.84501
1.83685
1.82999
1.8239
1.81853
1.81518
1.81406
1.81379
1.81284
1.81305
1.8134
1.81372
1.81866
1.82773
1.83569
1.84325
1.85273
1.86348
1.87522
1.88826
1.90258
1.91821
1.93523
1.95351
1.97279
1.99311
2.01365
2.03457
2.05659
2.07787
2.09926
2.12134
2.14273
2.16427
2.18444
2.20256
2.21657
2.22884
2.23622
2.23633
2.23601
2.23479
2.23184
2.21483
2.19911
2.18272
2.16296
2.14352
2.12252
2.10199
2.0804
2.0585
2.03643
2.01528
1.99409
1.97412
1.95511
1.93763
1.92122
1.90611
1.89183
1.87864
1.86655
1.85568
1.84593
1.83725
1.82987
1.82336
1.81776
1.81423
1.81309
1.8129
1.81196
1.81226
1.81282
1.81332
1.8186
1.82795
1.83591
1.84366
1.85338
1.86447
1.87659
1.89004
1.90462
1.92049
1.93756
1.95568
1.97504
1.99545
2.0162
2.03764
2.06006
2.08187
2.1039
2.12636
2.14764
2.169
2.18871
2.20629
2.21968
2.23144
2.23861
2.23878
2.23893
2.23803
2.23464
2.21725
2.20154
2.18566
2.1663
2.14713
2.12539
2.1037
2.08098
2.05856
2.03648
2.01584
1.99559
1.97666
1.95839
1.941
1.92432
1.90867
1.89376
1.87987
1.86716
1.85585
1.84577
1.8368
1.82918
1.82251
1.81678
1.81316
1.81203
1.81193
1.8112
1.8115
1.81208
1.81271
1.81823
1.82775
1.83579
1.84387
1.85396
1.86548
1.87806
1.89204
1.90714
1.92336
1.94058
1.95853
1.97768
1.99763
2.01814
2.04
2.06285
2.08544
2.10856
2.13138
2.15251
2.17285
2.19132
2.20843
2.22194
2.2339
2.24114
2.24131
2.2414
2.24063
2.23738
2.22035
2.20517
2.18993
2.17075
2.1511
2.12828
2.10559
2.0819
2.05913
2.0375
2.01765
1.99832
1.97998
1.96171
1.94365
1.9262
1.9097
1.89413
1.87986
1.86701
1.85549
1.8452
1.83608
1.82833
1.8216
1.81585
1.81227
1.81123
1.81117
1.81129
1.81148
1.81194
1.81251
1.81813
1.82772
1.83579
1.84404
1.8544
1.86608
1.87895
1.89341
1.90899
1.92576
1.94334
1.96142
1.98036
2.00004
2.02022
2.04212
2.0651
2.08813
2.11224
2.13538
2.15605
2.17568
2.19322
2.20982
2.22362
2.23627
2.24403
2.24424
2.24392
2.2429
2.24023
2.22391
2.20933
2.19439
2.17472
2.15437
2.13109
2.10821
2.08447
2.06229
2.04109
2.02111
2.00145
1.98245
1.96321
1.94434
1.9264
1.9098
1.89408
1.87971
1.86683
1.85521
1.84483
1.83559
1.82777
1.82117
1.81556
1.81214
1.81129
1.81131
1.8122
1.81228
1.81268
1.81308
1.81874
1.82836
1.83629
1.84463
1.85506
1.8666
1.87934
1.89381
1.90943
1.9266
1.94466
1.96335
1.98249
2.00231
2.02284
2.04473
2.06762
2.09032
2.11426
2.13735
2.15821
2.17792
2.19526
2.21176
2.22559
2.23844
2.24681
2.24728
2.24682
2.2456
2.24351
2.22739
2.21302
2.198
2.1773
2.15671
2.13393
2.11194
2.08898
2.06749
2.04583
2.02458
2.00342
1.98273
1.96268
1.94359
1.92585
1.90964
1.89421
1.87998
1.86723
1.85569
1.84533
1.836
1.82814
1.82165
1.81608
1.81278
1.81204
1.81215
1.81319
1.81326
1.8136
1.81396
1.81966
1.82932
1.83726
1.84579
1.85628
1.86765
1.88
1.89397
1.90922
1.92623
1.94446
1.96377
1.98371
2.00441
2.02568
2.04787
2.07063
2.0927
2.11551
2.13819
2.1596
2.17996
2.19798
2.21467
2.22819
2.24048
2.24882
2.24975
2.24965
2.24885
2.24719
2.23065
2.21554
2.19993
2.17878
2.15871
2.13714
2.11622
2.0939
2.07253
2.04985
2.02684
2.00418
1.98235
1.96188
1.9429
1.92553
1.90994
1.89503
1.88112
1.86838
1.85675
1.84624
1.83679
1.82888
1.82238
1.8168
1.81356
1.81286
1.81302
1.81357
1.81374
1.8142
1.81468
1.82059
1.83036
1.83836
1.84707
1.85767
1.86903
1.88126
1.89484
1.90965
1.92624
1.94429
1.96382
1.98436
2.00589
2.02798
2.0507
2.07348
2.09522
2.1174
2.13946
2.16076
2.18182
2.20075
2.21783
2.23127
2.24283
2.25028
2.25138
2.25202
2.25198
2.25055
2.23319
2.21695
2.20107
2.18024
2.16118
2.1405
2.12003
2.09755
2.07542
2.05169
2.02773
2.00473
1.98259
1.96219
1.94346
1.92633
1.9109
1.89611
1.88219
1.86938
1.85765
1.84703
1.83753
1.8296
1.82308
1.81743
1.81408
1.8133
1.81341
1.81357
1.81382
1.8144
1.81502
1.82119
1.8312
1.83931
1.84815
1.85878
1.87022
1.88268
1.89638
1.91115
1.92758
1.94531
1.96461
1.98507
2.00694
2.02935
2.0524
2.07543
2.09742
2.11964
2.14152
2.1626
2.18338
2.20269
2.22046
2.23409
2.24537
2.25213
2.25292
2.25381
2.25418
2.2525
2.23451
2.21809
2.20293
2.1828
2.16426
2.14354
2.12249
2.09876
2.07583
2.05189
2.02825
2.00563
1.98428
1.96449
1.94562
1.92809
1.91199
1.89674
1.88257
1.8697
1.85805
1.8476
1.83827
1.8304
1.82383
1.81804
1.8145
1.8135
1.81346
1.81366
1.81397
1.81455
1.81527
1.82156
1.83144
1.83954
1.84847
1.85931
1.87113
1.8842
1.89846
1.91371
1.93037
1.94802
1.96689
1.98661
2.0079
2.02983
2.05275
2.07612
2.09872
2.12155
2.14373
2.16479
2.18505
2.20383
2.22174
2.23585
2.24756
2.25438
2.25487
2.25495
2.25465
2.25312
2.23547
2.21981
2.20554
2.18592
2.16714
2.14519
2.12305
2.09856
2.07559
2.05202
2.02929
2.00779
1.9874
1.96762
1.94831
1.93006
1.91306
1.8972
1.8827
1.86972
1.85816
1.84791
1.8388
1.8311
1.82452
1.81865
1.81497
1.81375
1.81357
1.81416
1.81444
1.81488
1.81552
1.82173
1.83131
1.83949
1.84841
1.85936
1.87158
1.88537
1.9004
1.91635
1.93341
1.9511
1.96963
1.98878
2.00915
2.0301
2.05254
2.07602
2.09916
2.12265
2.14544
2.16679
2.18671
2.20493
2.22257
2.23699
2.24923
2.25635
2.25649
2.25567
2.25466
2.25343
2.23678
2.22203
2.20809
2.18832
2.16881
2.14568
2.12297
2.09843
2.07571
2.05324
2.0315
2.01076
1.99049
1.97034
1.95047
1.93172
1.91422
1.89794
1.88304
1.86988
1.85836
1.84819
1.83926
1.83177
1.8253
1.81953
1.81586
1.81456
1.81426
1.81536
1.81551
1.8158
1.8161
1.82201
1.83145
1.83964
1.84851
1.85956
1.87193
1.88602
1.90139
1.9178
1.93523
1.95323
1.97167
1.99061
2.01066
2.03109
2.05287
2.07634
2.09968
2.12341
2.14668
2.16858
2.1887
2.20698
2.22432
2.23836
2.2504
2.25734
2.25738
2.25632
2.25519
2.25421
2.23812
2.22392
2.20996
2.18938
2.16925
2.14575
2.12312
2.09909
2.07721
2.05566
2.03422
2.01328
1.99247
1.97173
1.95169
1.93288
1.91521
1.89878
1.88378
1.87057
1.85913
1.84912
1.84032
1.8329
1.82643
1.82081
1.81723
1.81585
1.8155
1.81645
1.81661
1.81685
1.81714
1.82287
1.8323
1.84061
1.84939
1.86033
1.87257
1.88645
1.90154
1.91764
1.93496
1.95324
1.9722
1.99182
2.01233
2.03308
2.05515
2.07835
2.10107
2.12432
2.14768
2.16998
2.1906
2.20932
2.22654
2.23991
2.25125
2.25755
2.25764
2.25703
2.25624
2.2553
2.23928
2.22478
2.21032
2.18959
2.16925
2.14587
2.1241
2.10103
2.07961
2.05809
2.03618
2.01431
1.99278
1.97185
1.95197
1.93348
1.91609
1.89998
1.88538
1.87232
1.86079
1.85063
1.84162
1.83396
1.82721
1.82147
1.81794
1.81662
1.81645
1.81698
1.81734
1.81769
1.81812
1.82395
1.83358
1.84208
1.85091
1.86179
1.87373
1.88706
1.90161
1.91726
1.93417
1.95218
1.97137
1.99193
2.01363
2.03574
2.05867
2.08179
2.10389
2.12616
2.14887
2.17106
2.19198
2.21098
2.22805
2.24095
2.25176
2.25756