# vtk DataFile Version 3.0
vtk output
ASCII
DATASET UNSTRUCTURED_GRID
FIELD FieldData 2
TIME 1 1 double
0.7
CYCLE 1 1 int
35
POINTS 16705 double
0 0 0
0.00390625 0 0
0.0078125 0 0
0.0117188 0 0
0.015625 0 0
0.0195312 0 0
0.0234375 0 0
0.0273438 0 0
0.03125 0 0
0.0351562 0 0
0.0390625 0 0
0.0429688 0 0
0.046875 0 0
0.0507812 0 0
0.0546875 0 0
0.0585938 0 0
0.0625 0 0
0.0664062 0 0
0.0703125 0 0
0.0742188 0 0
0.078125 0 0
0.0820312 0 0
0.0859375 0 0
0.0898438 0 0
0.09375 0 0
0.0976562 0 0
0.101562 0 0
0.105469 0 0
0.109375 0 0
0.113281 0 0
0.117188 0 0
0.121094 0 0
0.125 0 0
0.128906 0 0
0.132812 0 0
0.136719 0 0
0.140625 0 0
0.144531 0 0
0.148438 0 0
0.152344 0 0
0.15625 0 0
0.160156 0 0
0.164062 0 0
0.167969 0 0
0.171875 0 0
0.175781 0 0
0.179688 0 0
0.183594 0 0
0.1875 0 0
0.191406 0 0
0.195312 0 0
0.199219 0 0
0.203125 0 0
0.207031 0 0
0.210938 0 0
0.214844 0 0
0.21875 0 0
0.222656 0 0
0.226562 0 0
0.230469 0 0
0.234375 0 0
0.238281 0 0
0.242188 0 0
0.246094 0 0
0.25 0 0
0 0.00390625 0
0.00390625 0.00390625 0
0.0078125 0.00390625 0
0.0117188 0.00390625 0
0.015625 0.00390625 0
0.0195312 0.00390625 0
0.0234375 0.00390625 0
0.0273438 0.00390625 0
0.03125 0.00390625 0
0.0351562 0.00390625 0
0.0390625 0.00390625 0
0.0429688 0.00390625 0
0.046875 0.00390625 0
0.0507812 0.00390625 0
0.0546875 0.00390625 0
0.0585938 0.00390625 0
0.0625 0.00390625 0
0.0664062 0.00390625 0
0.0703125 0.00390625 0
0.0742188 0.00390625 0
0.078125 0.00390625 0
0.0820312 0.00390625 0
0.0859375 0.00390625 0
0.0898438 0.00390625 0
0.09375 0.00390625 0
0.0976562 0.00390625 0
0.101562 0.00390625 0
0.105469 0.00390625 0
0.109375 0.00390625 0
0.113281 0.00390625 0
0.117188 0.00390625 0
0.121094 0.00390625 0
0.125 0.00390625 0
0.128906 0.00390625 0
0.132812 0.00390625 0
0.136719 0.00390625 0
0.140625 0.00390625 0
0.144531 0.00390625 0
0.148438 0.00390625 0
0.152344 0.00390625 0
0.15625 0.00390625 0
0.160156 0.00390625 0
0.164062 0.00390625 0
0.167969 0.00390625 0
0.171875 0.00390625 0
0.175781 0.00390625 0
0.179688 0.00390625 0
0.183594 0.00390625 0
0.1875 0.00390625 0
0.191406 0.00390625 0
0.195312 0.00390625 0
0.199219 0.00390625 0
0.203125 0.00390625 0
0.207031 0.00390625 0
0.210938 0.00390625 0
0.214844 0.00390625 0
0.21875 0.00390625 0
0.222656 0.00390625 0
0.226562 0.00390625 0
0.230469 0.00390625 0
0.234375 0.00390625 0
0.238281 0.00390625 0
0.242188 0.00390625 0
0.246094 0.00390625 0
0.25 0.00390625 0
0 0.0078125 0
0.00390625 0.0078125 0
0.0078125 0.0078125 0
0.0117188 0.0078125 0
0.015625 0.0078125 0
0.0195312 0.0078125 0
0.0234375 0.0078125 0
0.0273438 0.0078125 0
0.03125 0.0078125 0
0.0351562 0.0078125 0
0.0390625 0.0078125 0
0.0429688 0.0078125 0
0.046875 0.0078125 0
0.0507812 0.0078125 0
0.0546875 0.0078125 0
0.0585938 0.0078125 0
0.0625 0.0078125 0
0.0664062 0.0078125 0
0.0703125 0.0078125 0
0.0742188 0.0078125 0
0.078125 0.0078125 0
0.0820312 0.0078125 0
0.0859375 0.0078125 0
0.0898438 0.0078125 0
0.09375 0.0078125 0
0.0976562 0.0078125 0
0.101562 0.0078125 0
0.105469 0.0078125 0
0.109375 0.0078125 0
0.113281 0.0078125 0
0.117188 0.0078125 0
0.121094 0.0078125 0
0.125 0.0078125 0
0.128906 0.0078125 0
0.132812 0.0078125 0
0.136719 0.0078125 0
0.140625 0.0078125 0
0.144531 0.0078125 0
0.148438 0.0078125 0
0.152344 0.0078125 0
0.15625 0.0078125 0
0.160156 0.0078125 0
0.164062 0.0078125 0
0.167969 0.0078125 0
0.171875 0.0078125 0
0.175781 0.0078125 0
0.179688 0.0078125 0
0.183594 0.0078125 0
0.1875 0.0078125 0
0.191406 0.0078125 0
0.195312 0.0078125 0
0.199219 0.0078125 0
0.203125 0.0078125 0
0.207031 0.0078125 0
0.210938 0.0078125 0
0.214844 0.0078125 0
0.21875 0.0078125 0
0.222656 0.0078125 0
0.226562 0.0078125 0
0.230469 0.0078125 0
0.234375 0.0078125 0
0.238281 0.0078125 0
0.242188 0.0078125 0
0.246094 0.0078125 0
0.25 0.0078125 0
0 0.0117188 0
0.00390625 0.0117188 0
0.0078125 0.0117188 0
0.0117188 0.0117188 0
0.015625 0.0117188 0
0.0195312 0.0117188 0
0.0234375 0.0117188 0
0.0273438 0.0117188 0
0.03125 0.0117188 0
0.0351562 0.0117188 0
0.0390625 0.0117188 0
0.0429688 0.0117188 0
0.046875 0.0117188 0
0.0507812 0.0117188 0
0.0546875 0.0117188 0
0.0585938 0.0117188 0
0.0625 0.0117188 0
0.0664062 0.0117188 0
0.0703125 0.0117188 0
0.0742188 0.0117188 0
0.078125 0.0117188 0
0.0820312 0.0117188 0
0.0859375 0.0117188 0
0.0898438 0.0117188 0
0.09375 0.0117188 0
0.0976562 0.0117188 0
0.101562 0.0117188 0
0.105469 0.0117188 0
0.109375 0.0117188 0
0.113281 0.0117188 0
0.117188 0.0117188 0
0.121094 0.0117188 0
0.125 0.0117188 0
0.128906 0.0117188 0
0.132812 0.0117188 0
0.136719 0.0117188 0
0.140625 0.0117188 0
0.144531 0.0117188 0
0.148438 0.0117188 0
0.152344 0.0117188 0
0.15625 0.0117188 0
0.160156 0.0117188 0
0.164062 0.0117188 0
0.167969 0.0117188 0
0.171875 0.0117188 0
0.175781 0.0117188 0
0.179688 0.0117188 0
0.183594 0.0117188 0
0.1875 0.0117188 0
0.191406 0.0117188 0
0.195312 0.0117188 0
0.199219 0.0117188 0
0.203125 0.0117188 0
0.207031 0.0117188 0
0.210938 0.0117188 0
0.214844 0.0117188 0
0.21875 0.0117188 0
0.222656 0.0117188 0
0.226562 0.0117188 0
0.230469 0.0117188 0
0.234375 0.0117188 0
0.238281 0.0117188 0
0.242188 0.0117188 0
0.246094 0.0117188 0
0.25 0.0117188 0
0 0.015625 0
0.00390625 0.015625 0
0.0078125 0.015625 0
0.0117188 0.015625 0
0.015625 0.015625 0
0.0195312 0.015625 0
0.0234375 0.015625 0
0.0273438 0.015625 0
0.03125 0.015625 0
0.0351562 0.015625 0
0.0390625 0.015625 0
0.0429688 0.015625 0
0.046875 0.015625 0
0.0507812 0.015625 0
0.0546875 0.015625 0
0.0585938 0.015625 0
0.0625 0.015625 0
0.0664062 0.015625 0
0.0703125 0.015625 0
0.0742188 0.015625 0
0.078125 0.015625 0
0.0820312 0.015625 0
0.0859375 0.015625 0
0.0898438 0.015625 0
0.09375 0.015625 0
0.0976562 0.015625 0
0.101562 0.015625 0
0.105469 0.015625 0
0.109375 0.015625 0
0.113281 0.015625 0
0.117188 0.015625 0
0.121094 0.015625 0
0.125 0.015625 0
0.128906 0.015625 0
0.132812 0.015625 0
0.136719 0.015625 0
0.140625 0.015625 0
0.144531 0.015625 0
0.148438 0.015625 0
0.152344 0.015625 0
0.15625 0.015625 0
0.160156 0.015625 0
0.164062 0.015625 0
0.167969 0.015625 0
0.171875 0.015625 0
0.175781 0.015625 0
0.179688 0.015625 0
0.183594 0.015625 0
0.1875 0.015625 0
0.191406 0.015625 0
0.195312 0.015625 0
0.199219 0.015625 0
0.203125 0.015625 0
0.207031 0.015625 0
0.210938 0.015625 0
0.214844 0.015625 0
0.21875 0.015625 0
0.222656 0.015625 0
0.226562 0.015625 0
0.230469 0.015625 0
0.234375 0.015625 0
0.238281 0.015625 0
0.242188 0.015625 0
0.246094 0.015625 0
0.25 0.015625 0
0 0.0195312 0
0.00390625 0.0195312 0
0.0078125 0.0195312 0
0.0117188 0.0195312 0
0.015625 0.0195312 0
0.0195312 0.0195312 0
0.0234375 0.0195312 0
0.0273438 0.0195312 0
0.03125 0.0195312 0
0.0351562 0.0195312 0
0.0390625 0.0195312 0
0.0429688 0.0195312 0
0.046875 0.0195312 0
0.0507812 0.0195312 0
0.0546875 0.0195312 0
0.0585938 0.0195312 0
0.0625 0.0195312 0
0.0664062 0.0195312 0
0.0703125 0.0195312 0
0.0742188 0.0195312 0
0.078125 0.0195312 0
0.0820312 0.0195312 0
0.0859375 0.0195312 0
0.0898438 0.0195312 0
0.09375 0.0195312 0
0.0976562 0.0195312 0
0.101562 0.0195312 0
0.105469 0.0195312 0
0.109375 0.0195312 0
0.113281 0.0195312 0
0.117188 0.0195312 0
0.121094 0.0195312 0
0.125 0.0195312 0
0.128906 0.0195312 0
0.132812 0.0195312 0
0.136719 0.0195312 0
0.140625 0.0195312 0
0.144531 0.0195312 0
0.148438 0.0195312 0
0.152344 0.0195312 0
0.15625 0.0195312 0
0.160156 0.0195312 0
0.164062 0.0195312 0
0.167969 0.0195312 0
0.171875 0.0195312 0
0.175781 0.0195312 0
0.179688 0.0195312 0
0.183594 0.0195312 0
0.1875 0.0195312 0
0.191406 0.0195312 0
0.195312 0.0195312 0
0.199219 0.0195312 0
0.203125 0.0195312 0
0.207031 0.0195312 0
0.210938 0.0195312 0
0.214844 0.0195312 0
0.21875 0.0195312 0
0.222656 0.0195312 0
0.226562 0.0195312 0
0.230469 0.0195312 0
0.234375 0.0195312 0
0.238281 0.0195312 0
0.242188 0.0195312 0
0.246094 0.0195312 0
0.25 0.0195312 0
0 0.0234375 0
0.00390625 0.0234375 0
0.0078125 0.0234375 0
0.0117188 0.0234375 0
0.015625 0.0234375 0
0.0195312 0.0234375 0
0.0234375 0.0234375 0
0.0273438 0.0234375 0
0.03125 0.0234375 0
0.0351562 0.0234375 0
0.0390625 0.0234375 0
0.0429688 0.0234375 0
0.046875 0.0234375 0
0.0507812 0.0234375 0
0.0546875 0.0234375 0
0.0585938 0.0234375 0
0.0625 0.0234375 0
0.0664062 0.0234375 0
0.0703125 0.0234375 0
0.0742188 0.0234375 0
0.078125 0.0234375 0
0.0820312 0.0234375 0
0.0859375 0.0234375 0
0.0898438 0.0234375 0
0.09375 0.0234375 0
0.0976562 0.0234375 0
0.101562 0.0234375 0
0.105469 0.0234375 0
0.109375 0.0234375 0
0.113281 0.0234375 0
0.117188 0.0234375 0
0.121094 0.0234375 0
0.125 0.0234375 0
0.128906 0.0234375 0
0.132812 0.0234375 0
0.136719 0.0234375 0
0.140625 0.0234375 0
0.144531 0.0234375 0
0.148438 0.0234375 0
0.152344 0.0234375 0
0.15625 0.0234375 0
0.160156 0.0234375 0
0.164062 0.0234375 0
0.167969 0.0234375 0
0.171875 0.0234375 0
0.175781 0.0234375 0
0.179688 0.0234375 0
0.183594 0.0234375 0
0.1875 0.0234375 0
0.191406 0.0234375 0
0.195312 0.0234375 0
0.199219 0.0234375 0
0.203125 0.0234375 0
0.207031 0.0234375 0
0.210938 0.0234375 0
0.214844 0.0234375 0
0.21875 0.0234375 0
0.222656 0.0234375 0
0.226562 0.0234375 0
0.230469 0.0234375 0
0.234375 0.0234375 0
0.238281 0.0234375 0
0.242188 0.0234375 0
0.246094 0.0234375 0
0.25 0.0234375 0
0 0.0273438 0
0.00390625 0.0273438 0
0.0078125 0.0273438 0
0.0117188 0.0273438 0
0.015625 0.0273438 0
0.0195312 0.0273438 0
0.0234375 0.0273438 0
0.0273438 0.0273438 0
0.03125 0.0273438 0
0.0351562 0.0273438 0
0.0390625 0.0273438 0
0.0429688 0.0273438 0
0.046875 0.0273438 0
0.0507812 0.0273438 0
0.0546875 0.0273438 0
0.0585938 0.0273438 0
0.0625 0.0273438 0
0.0664062 0.0273438 0
0.0703125 0.0273438 0
0.0742188 0.0273438 0
0.078125 0.0273438 0
0.0820312 0.0273438 0
0.0859375 0.0273438 0
0.0898438 0.0273438 0
0.09375 0.0273438 0
0.0976562 0.0273438 0
0.101562 0.0273438 0
0.105469 0.0273438 0
0.109375 0.0273438 0
0.113281 0.0273438 0
0.117188 0.0273438 0
0.121094 0.0273438 0
0.125 0.0273438 0
0.128906 0.0273438 0
0.132812 0.0273438 0
0.136719 0.0273438 0
0.140625 0.0273438 0
0.144531 0.0273438 0
0.148438 0.0273438 0
[...]
CELL_DATA 16384
SCALARS solution double
LOOKUP_TABLE default
2.01482
2.01478
2.01466
2.01445
2.0142
2.01388
2.01353
2.01303
2.01243
2.01193
2.0114
2.01086
2.01023
2.00961
2.00911
2.00865
2.00809
2.00749
2.00685
2.00635
2.00579
2.00524
2.00494
2.00464
2.00432
2.00402
2.00373
2.00347
2.00323
2.00292
2.00285
2.00267
2.00239
2.00233
2.00237
2.0025
2.00316
2.00387
2.00405
2.00409
2.00432
2.00474
2.00501
2.00545
2.00615
2.00674
2.0074
2.00805
2.00846
2.00924
2.01013
2.01074
2.01139
2.01189
2.01236
2.01286
2.01324
2.01352
2.0141
2.01458
2.01472
2.0148
2.01483
2.01478
2.02008
2.01984
2.01963
2.01938
2.01911
2.01876
2.01841
2.0181
2.01781
2.01736
2.01684
2.01632
2.01569
2.01509
2.01471
2.0144
2.01392
2.0135
2.01304
2.01243
2.01172
2.01127
2.01104
2.01099
2.01064
2.01045
2.01031
2.00985
2.00966
2.00939
2.00925
2.00904
2.00863
2.00848
2.00845
2.00847
2.00939
2.01079
2.01083
2.0102
2.01025
2.01064
2.01069
2.01102
2.01194
2.01273
2.01324
2.01403
2.01409
2.01502
2.01641
2.01672
2.01781
2.01841
2.0183
2.01907
2.01915
2.01915
2.02015
2.02086
2.02077
2.02067
2.02059
2.02034
2.00649
2.00619
2.00597
2.00585
2.00585
2.00589
2.00592
2.00607
2.0063
2.0064
2.00648
2.00658
2.00675
2.00687
2.00713
2.00762
2.00799
2.00808
2.00806
2.00845
2.00918
2.00966
2.00988
2.0099
2.00979
2.00975
2.00982
2.00979
2.0097
2.00955
2.00945
2.00929
2.00919
2.00919
2.00922
2.00931
2.00968
2.00981
2.00958
2.00926
2.00907
2.00906
2.00887
2.00867
2.00861
2.00845
2.00825
2.00793
2.00759
2.00757
2.00759
2.0075
2.00725
2.00695
2.00673
2.00671
2.00664
2.00654
2.00681
2.00706
2.00703
2.00696
2.00688
2.00679
1.99361
1.99351
1.99342
1.99345
1.99366
1.99401
1.99427
1.99454
1.9949
1.99544
1.99605
1.99662
1.99747
1.99813
1.99861
1.99952
2.0002
2.00074
2.00142
2.00286
2.00488
2.00633
2.00727
2.00763
2.00787
2.00823
2.0089
2.00941
2.0096
2.00968
2.00966
2.00955
2.00951
2.00964
2.00979
2.00981
2.00955
2.00866
2.00788
2.00728
2.0066
2.00593
2.0054
2.00439
2.00307
2.00209
2.00141
2.00051
1.99952
1.99874
1.99818
1.99763
1.99662
1.99576
1.99517
1.99468
1.99443
1.99412
1.99383
1.99373
1.9937
1.99365
1.99362
1.99362
1.99175
1.99161
1.9915
1.99155
1.99185
1.99229
1.99261
1.99297
1.99346
1.99406
1.99468
1.99525
1.99608
1.99682
1.99742
1.99836
1.99904
1.99941
2.0003
2.00188
2.00339
2.00473
2.006
2.00666
2.00725
2.00778
2.00866
2.00959
2.01011
2.01043
2.0105
2.01044
2.0104
2.01045
2.01043
2.01024
2.00968
2.00867
2.00761
2.00652
2.0056
2.00498
2.0044
2.00321
2.00183
2.00088
2.00033
1.99958
1.99822
1.99738
1.99681
1.99615
1.99523
1.99439
1.99378
1.99322
1.99291
1.99255
1.99216
1.99197
1.9919
1.99186
1.99183
1.9918
1.98848
1.9884
1.98835
1.9884
1.98889
1.98951
1.98997
1.99053
1.99121
1.99197
1.9928
1.99367
1.99471
1.99576
1.99678
1.99807
1.9992
1.99966
2.00089
2.00276
2.00418
2.00577
2.00704
2.00798
2.00907
2.00962
2.01026
2.01128
2.01201
2.01255
2.0128
2.01277
2.01274
2.0127
2.01253
2.01224
2.01155
2.0106
2.00959
2.00849
2.00753
2.00656
2.0055
2.00421
2.00279
2.00158
2.00056
1.99955
1.99795
1.99694
1.99579
1.9946
1.99353
1.9926
1.9919
1.99105
1.9904
1.98988
1.98934
1.98887
1.98863
1.98855
1.98852
1.98851
1.98524
1.9852
1.98521
1.98532
1.98593
1.98664
1.98723
1.98802
1.98894
1.98996
1.99103
1.99225
1.99354
1.99488
1.99621
1.99782
1.99936
2.00017
2.00175
2.00388
2.0055
2.00735
2.0087
2.00987
2.01147
2.01242
2.01307
2.01419
2.01516
2.01586
2.01618
2.01617
2.01617
2.01616
2.01599
2.01552
2.01464
2.01358
2.01251
2.0113
2.01007
2.00865
2.00714
2.00555
2.00386
2.00235
2.00091
1.99961
1.99776
1.99649
1.99489
1.9933
1.99213
1.99099
1.99006
1.98893
1.98793
1.9872
1.98654
1.98587
1.98544
1.9853
1.98526
1.98525
1.98206
1.98203
1.98202
1.98231
1.9831
1.98381
1.9845
1.98545
1.98656
1.98785
1.98914
1.99058
1.99214
1.99384
1.99555
1.99743
1.99933
2.00059
2.00255
2.00489
2.00666
2.00878
2.01053
2.01197
2.01381
2.01513
2.01612
2.0173
2.01837
2.01914
2.01948
2.01948
2.01949
2.01949
2.01919
2.0185
2.01755
2.01641
2.01523
2.01381
2.01219
2.01045
2.00866
2.00675
2.00476
2.00293
2.00126
1.99967
1.99738
1.99569
1.99389
1.99209
1.99065
1.98914
1.9879
1.98661
1.98543
1.9845
1.98369
1.98296
1.98235
1.98209
1.98205
1.98206
1.97938
1.97935
1.97933
1.97978
1.98066
1.98146
1.98231
1.98343
1.98468
1.98615
1.98767
1.98932
1.99109
1.99306
1.99504
1.99713
1.99924
2.0009
2.00328
2.00579
2.00773
2.01005
2.01221
2.01397
2.01588
2.01751
2.01883
2.02003
2.02117
2.022
2.02237
2.0224
2.02243
2.02245
2.02198
2.02112
2.02013
2.01888
2.0175
2.01582
2.01396
2.01201
2.00998
2.00784
2.00561
2.00349
2.00158
1.99972
1.99699
1.99496
1.99303
1.99113
1.98939
1.98756
1.98615
1.98477
1.98345
1.98232
1.98138
1.98058
1.97984
1.97944
1.97939
1.97939
1.9764
1.97643
1.97647
1.97705
1.97807
1.97909
1.98025
1.98158
1.98305
1.98474
1.98648
1.98837
1.99035
1.99252
1.99471
1.997
1.99932
2.00132
2.00407
2.00676
2.00889
2.01134
2.01371
2.01568
2.01771
2.0196
2.02124
2.02253
2.02371
2.02463
2.02509
2.02515
2.02517
2.02516
2.02462
2.02366
2.02259
2.02119
2.01958
2.01767
2.01563
2.0135
2.01128
2.00896
2.00652
2.00414
2.00195
1.9998
1.99694
1.99455
1.9924
1.99037
1.98842
1.98634
1.98467
1.9831
1.9816
1.98026
1.97906
1.97808
1.97721
1.97664
1.97644
1.9764
1.97222
1.97227
1.97239
1.97315
1.97444
1.97567
1.97711
1.97874
1.98057
1.98265
1.98481
1.98712
1.98948
1.99194
1.9944
1.9969
1.99945
2.00184
2.00479
2.00767
2.01003
2.01265
2.01518
2.01737
2.01952
2.02153
2.02338
2.02484
2.02609
2.02714
2.02773
2.02784
2.02784
2.02777
2.02712
2.02604
2.02483
2.0233
2.02154
2.01953
2.01736
2.01503
2.01261
2.01008
2.00745
2.00481
2.0023
1.99987
1.99692
1.99428
1.99174
1.98933
1.9871
1.98467
1.98249
1.98048
1.97868
1.97709
1.97563
1.97435
1.9733
1.97261
1.97229
1.97222
1.96824
1.96826
1.96837
1.9692
1.97052
1.97181
1.97331
1.975
1.97698
1.97927
1.98179
1.98457
1.98744
1.99042
1.99349
1.99651
1.99946
2.00229
2.00547
2.00854
2.01119
2.01398
2.01666
2.01911
2.02139
2.02347
2.02542
2.02705
2.0284
2.02953
2.03018
2.03032
2.03034
2.03025
2.02952
2.02831
2.02695
2.02532
2.02347
2.02136
2.01909
2.0166
2.01394
2.01122
2.00839
2.00549
2.00264
1.99988
1.9965
1.99333
1.99018
1.98717
1.9845
1.98178
1.97924
1.97687
1.97489
1.97327
1.9718
1.97047
1.96937
1.96863
1.96836
1.96826
1.96544
1.96553
1.96559
1.96626
1.96756
1.96874
1.97017
1.97186
1.97382
1.97611
1.97859
1.98134
1.9843
1.98748
1.99102
1.99457
1.99814
2.0016
2.0054
2.009
2.01212
2.01518
2.01811
2.0208
2.02325
2.02543
2.02743
2.02915
2.03059
2.03176
2.03245
2.0326
2.03264
2.03258
2.0319
2.03057
2.02907
2.02735
2.02538
2.02318
2.02077
2.01812
2.01523
2.01215
2.00886
2.00539
2.00184
1.99844
1.99451
1.99095
1.98747
1.98421
1.98133
1.97858
1.97606
1.97371
1.97174
1.97015
1.96879
1.96758
1.96651
1.9658
1.96554
1.96541
1.96767
1.96752
1.96743
1.96798
1.96896
1.96984
1.97092
1.9722
1.97364
1.97542
1.97745
1.97974
1.98241
1.98536
1.98859
1.992
1.99566
1.99947
2.00358
2.00773
2.01163
2.01539
2.01896
2.02211
2.02492
2.02735
2.02941
2.03122
2.03273
2.03394
2.03468
2.03483
2.03486
2.03481
2.03427
2.03281
2.0312
2.02943
2.02732
2.02488
2.02207
2.01892
2.0154
2.01162
2.0076
2.00362
1.99975
1.99603
1.99214
1.98862
1.98543
1.98239
1.97972
1.97741
1.97553
1.97373
1.97221
1.97094
1.9699
1.96902
1.96829
1.96787
1.96766
1.96776
1.9711
1.97108
1.9711
1.97183
1.97293
1.97392
1.9752
1.97656
1.97806
1.97964
1.98135
1.98304
1.985
1.98707
1.98939
1.99197
1.99467
1.99802
2.00193
2.0059
2.00986
2.01387
2.0178
2.02164
2.02528
2.02846
2.03108
2.03318
2.0349
2.03619
2.03694
2.03706
2.03704
2.03694
2.03651
2.03493
2.03311
2.03106
2.02837
2.02526
2.02171
2.01793
2.0139
2.00981
2.00575
2.00188
1.99837
1.99511
1.99197
1.98946
1.98717
1.9851
1.98306
1.9812
1.97963
1.978
1.97651
1.97511
1.97394
1.97304
1.97215
1.97148
1.97119
1.97113
1.97142
1.9716
1.97186
1.9728
1.97433
1.97581
1.97747
1.97943
1.98156
1.98367
1.9859
1.98821
1.99049
1.99258
1.99485
1.99698
1.99891
2.00105
2.00364
2.00638
2.0094
2.01285
2.0165
2.02033
2.02403
2.02754
2.03092
2.03381
2.03618
2.03797
2.03894
2.03912
2.03909
2.03889
2.03822
2.03616
2.03366
2.03087
2.02752
2.02406
2.02039
2.01659
2.01285
2.00935
2.00636
2.00367
2.00135
1.99916
1.99677
1.99466
1.99236
1.99029
1.98809
1.98571
1.9836
1.98147
1.97949
1.97746
1.97571
1.97434
1.973
1.97201
1.97162
1.97146
1.96856
1.96862
1.96888
1.97014
1.97193
1.97355
1.97558
1.97791
1.98058
1.98346
1.98663
1.99006
1.99344
1.99687
2.00002
2.00296
2.00555
2.00805
2.01036
2.01243
2.01432
2.01621
2.01841
2.02092
2.02372
2.02673
2.02973
2.03278
2.03556
2.03799
2.03947
2.03996
2.03991
2.03939
2.03822
2.03544
2.03256
2.02973
2.02663
2.02362
2.0208
2.01832
2.0161
2.01411
2.0123
2.01029
2.00802
2.00561
2.00273
1.99979
1.99672
1.99342
1.98999
1.98661
1.98356
1.98066
1.97806
1.97566
1.97349
1.97164
1.97017
1.96921
1.96876
1.9686
1.9646
1.96462
1.96474
1.96602
1.96794
1.96979
1.97206
1.97454
1.97742
1.98063
1.98417
1.98794
1.99188
1.99608
2.00042
2.00473
2.00887
2.0129
2.01651
2.01951
2.02214
2.02413
2.02575
2.02701
2.02812
2.02943
2.03075
2.03226
2.03396
2.03546
2.03619
2.03644
2.03646
2.03641
2.03588
2.034
2.03204
2.03058
2.02928
2.02803
2.02676
2.02544
2.02377
2.02178
2.01933
2.01637
2.01296
2.00917
2.0049
2.00046
1.99614
1.99188
1.98779
1.98399
1.98057
1.9773
1.97446
1.97187
1.96957
1.96772
1.96621
1.96518
1.96468
1.96458
1.95991
1.96005
1.96031
1.96156
1.96356
1.9655
1.96775
1.9703
1.97339
1.97681
1.98051
1.98439
1.98863
1.99299
1.9976
2.00238
2.0072
2.0123
2.01728
2.02194
2.02612
2.02967
2.03253
2.03472
2.03598
2.03627
2.03601
2.03538
2.03458
2.03392
2.03342
2.03291
2.0331
2.03354
2.03428
2.03488
2.03541
2.03599
2.03627
2.0358
2.03452
2.03244
2.02962
2.02632
2.02214
2.01741
2.01247
2.00753
2.00252
1.99764
1.99305
1.98869
1.98443
1.98044
1.97682
1.97339
1.97033
1.96763
1.96537
1.9635
1.96181
1.96061
1.96007
1.95994
1.95561
1.95571
1.95598
1.95729
1.9592
1.96107
1.96338
1.96603
1.96909
1.97245
1.97616
1.98006
1.98437
1.98886
1.99352
1.99845
2.00342
2.00858
2.01368
2.01873
2.02361
2.0283
2.03251
2.03616
2.0392
2.04082
2.04163
2.04128
2.04026
2.03888
2.03749
2.03648
2.03654
2.03769
2.03955
2.04059
2.04147
2.04165
2.04092
2.03927
2.03637
2.0328
2.02856
2.02384
2.01881
2.01366
2.00866
2.00367
1.99857
1.99364
1.98898
1.98449
1.98025
1.97626
1.97259
1.96918
1.96617
1.96353
1.96123
1.95926
1.95759
1.9564
1.95578
1.95562
1.95184
1.95193
1.95215
1.9534
1.95522
1.95696
1.95931
1.96202
1.96499
1.96826
1.97184
1.97561
1.97974
1.98411
1.98868
1.99342
1.99826
2.00331
2.00829
2.01328
2.01813
2.02283
2.02738
2.0318
2.03597
2.04009
2.04397
2.04695
2.04924
2.0511
2.05251
2.053
2.05254
2.05243
2.05141
2.04947
2.04675
2.04357
2.03997
2.03615
2.03207
2.02768
2.02308
2.01822
2.01336
2.00833
2.00329
1.99838
1.99349
1.98877
1.98423
1.97983
1.97571
1.97188
1.96832
1.96497
1.96207
1.95956
1.95732
1.95541
1.95383
1.95266
1.95201
1.95183
1.94903
1.94908
1.94921
1.95039
1.95223
1.95388
1.95601
1.95848
1.96126
1.96433
1.96768
1.97131
1.97523
1.97938
1.98379
1.9883
1.99295
1.99781
2.0026
2.0075
2.01245
2.01734
2.02241
2.02781
2.03314
2.03884
2.0448
2.05042
2.05551
2.06015
2.06369
2.06484
2.06483
2.06354
2.06049
2.05584
2.05031
2.04461
2.03889
2.03322
2.02791
2.02261
2.01742
2.01245
2.00754
2.0026
1.99773
1.99299
1.98837
1.98392
1.97959
1.9754
1.97145
1.96778
1.96439
1.96127
1.95853
1.95614
1.95404
1.95225
1.95078
1.94972
1.94916
1.94901
1.94737
1.94739
1.94747
1.94861
1.95034
1.95194
1.95393
1.95617
1.95867
1.96149
1.96465
1.96814
1.97186
1.97574
1.97989
1.98423
1.98873
1.99362
1.99854
2.00369
2.00913
2.01475
2.02067
2.02689
2.0331
2.03897
2.04486
2.04993
2.05431
2.05753
2.05937
2.06049
2.06067
2.06004
2.05815
2.05458
2.05022
2.04499
2.03921
2.03328
2.02688
2.0206
2.01465
2.0091
2.00371
1.99849
1.99354
1.98886
1.98425
1.97994
1.97587
1.97195
1.96827
1.96475
1.96156
1.9587
1.95614
1.9539
1.95196
1.9503
1.94894
1.94798
1.94752
1.94741
1.94681
1.94687
1.94702
1.94817
1.94986
1.95149
1.95349
1.95571
1.95826
1.96116
1.96431
1.96778
1.97154
1.97553
1.97978
1.98428
1.98893
1.9941
1.9995
2.00501
2.01073
2.01653
2.02233
2.028
2.0332
2.03784
2.04192
2.0453
2.04796
2.04974
2.0505
2.05084
2.05058
2.05056
2.05007
2.04813
2.04521
2.04188
2.03801
2.03338
2.02798
2.02229
2.01647
2.01063
2.00485
1.99926
1.994
1.98898
1.98404
1.97949
1.97527
1.97128
1.96762
1.96417
1.96095
1.95803
1.95546
1.95323
1.9513
1.94971
1.94839
1.9474
1.94694
1.94683
1.9479
1.94802
1.94825
1.94953
1.95143
1.95332
1.95561
1.95813
1.96108
1.96437
1.96787
1.97154
1.9756
1.97992
1.98436
1.98914
1.99407
1.99921
2.00453
2.00978
2.01496
2.01998
2.02463
2.02896
2.03271
2.0358
2.03835
2.04044
2.04195
2.04313
2.0436
2.04343
2.04325
2.04313
2.04329
2.04223
2.04013
2.03816
2.03573
2.03261
2.02888
2.02464
2.02
2.01493
2.00971
2.00439
1.9991
1.99389
1.98891
1.98411
1.97953
1.97523
1.97138
1.96773
1.96413
1.96075
1.95778
1.9552
1.95298
1.95115
1.94961
1.94844
1.94789
1.94783
1.95123
1.95134
1.9516
1.95293
1.95491
1.95687
1.95933
1.96215
1.96536
1.96883
1.97257
1.97654
1.98075
1.98523
1.98996
1.99494
1.99986
2.00476
2.00961
2.01428
2.01866
2.02281
2.0265
2.0298
2.03285
2.03541
2.03776
2.03969
2.0412
2.04247
2.04316
2.0433
2.04329
2.04309
2.04282
2.0415
2.03929
2.03738
2.03511
2.03261
2.02961
2.02627
2.02277
2.01872
2.01442
2.00979
2.00495
2.00003
1.99508
1.99018
1.98546
1.98086
1.97659
1.97262
1.96882
1.96527
1.96207
1.95923
1.95682
1.95482
1.95313
1.95189
1.9513
1.9512
1.95521
1.95531
1.95557
1.95699
1.95901
1.96096
1.96347
1.96634
1.96959
1.97314
1.97701
1.98116
1.98556
1.99006
1.99464
1.99931
2.00388
2.00838
2.01274
2.01686
2.02081
2.02455
2.02795
2.0311
2.03403
2.03665
2.03904
2.04103
2.04267
2.0441
2.04497
2.04518
2.0452
2.0451
2.04481
2.04312
2.04088
2.0389
2.03649
2.03394
2.03113
2.02795
2.02451
2.02081
2.01698
2.01299
2.00873
2.00428
1.99962
1.99494
1.99038
1.98585
1.98143
1.97721
1.9733
1.96976
1.96654
1.96363
1.96114
1.95907
1.95735
1.95607
1.9554
1.95521
1.95883
1.95894
1.95923
1.96074
1.96279
1.96477
1.96731
1.97014
1.97329
1.97674
1.98053
1.98456
1.98873
1.99294
1.99733
2.00184
2.00622
2.01051
2.0147
2.01873
2.02255
2.0261
2.02944
2.03269
2.03561
2.03824
2.04052
2.04245
2.04409
2.04549
2.04626
2.04635
2.04632
2.04632
2.04614
2.04459
2.04254
2.04073
2.03832
2.03566
2.03272
2.02952
2.02615
2.02252
2.01874
2.01478
2.0106
2.00632
2.00191
1.99747
1.99318
1.98896
1.98475
1.98068
1.97691
1.97351
1.97041
1.96756
1.96506
1.96296
1.96121
1.95987
1.9591
1.95886
1.96179
1.96186
1.96213
1.96366
1.96566
1.9676
1.97011
1.97287
1.97598
1.97934
1.98294
1.9867
1.99056
1.99452
1.99871
2.00299
2.00727
2.01154
2.01575
2.0198
2.02356
2.02709
2.03043
2.03357
2.03632
2.03875
2.04088
2.04262
2.04417
2.04545
2.04605
2.046
2.04592
2.04588
2.04574
2.0445
2.04274
2.04113
2.03898
2.03644
2.03348
2.03035
2.02713
2.02359
2.01973
2.01564
2.01146
2.00726
2.00303
1.9988
1.99466
1.99069
1.98677
1.98293
1.97932
1.97602
1.97299
1.97018
1.96774
1.96566
1.96391
1.96262
1.96198
1.9618
1.96389
1.96394
1.96412
1.96554
1.96747
1.96927
1.97158
1.97414
1.97703
1.98026
1.98368
1.98726
1.99109
1.99504
1.99909
2.00313
2.00719
2.01132
2.01545
2.01947
2.02326
2.02686
2.03022
2.03327
2.03584
2.03815
2.04023
2.04187
2.04325
2.04431
2.04474
2.04467
2.04461
2.04469
2.04475
2.04357
2.04174
2.0402
2.03819
2.03601
2.03326
2.03014
2.02689
2.0233
2.01942
2.01536
2.01128
2.00722
2.00315
1.9991
1.99507
1.99118
1.98739
1.9837
1.98023
1.97705
1.97417
1.97158
1.96926
1.96727
1.96564
1.96449
1.96398
1.96387
1.96451
1.9646
1.9648
1.96616
1.96801
1.96971
1.97189
1.97429
1.97695
1.97992
1.98318
1.98671
1.99055
1.99447
1.99846
2.00246
2.00641
2.01036
2.01431
2.01823
2.02198
2.02558
2.02898
2.03216
2.03496
2.03736
2.03952
2.04124
2.0426
2.04369
2.04424
2.04428
2.04431
2.04431
2.04425
2.04292
2.04094
2.03933
2.03727
2.035
2.03221
2.02901
2.02565
2.02204
2.01827
2.01437
2.01038
2.0064
2.00241
1.99837
1.99433
1.99044
1.98675
1.98324
1.97995
1.97692
1.97425
1.97191
1.96977
1.96791
1.96635
1.9652
1.96465
1.9645
1.96398
1.96408
1.96434
1.9657
1.96746
1.96913
1.97125
1.97366
1.97628
1.9791
1.98229
1.98566
1.9893
1.99313
1.99714
2.00112
2.00508
2.00908
2.013
2.01681
2.02049
2.02415
2.02772
2.03109
2.03401
2.03658
2.03899
2.04101
2.0426
2.04384
2.04445
2.04456
2.04459
2.04458
2.04443
2.04292
2.04073
2.03889
2.03647
2.03389
2.03097
2.02767
2.0242
2.02061
2.01692
2.01311
2.00914
2.00517
2.00115
1.99707
1.99303
1.98913
1.98556
1.98225
1.97912
1.97619
1.97354
1.97123
1.96921
1.96745
1.96592
1.96475
1.96414
1.96396
1.96284
1.9629
1.96313
1.96441
1.96612
1.96778
1.9699
1.97232
1.97497
1.9778
1.98094
1.98427
1.98775
1.99142
1.99531
1.99927
2.00332
2.00753
2.0116
2.01547
2.01924
2.023
2.0267
2.03012
2.03318
2.03604
2.0388
2.04118
2.04306
2.04447
2.04515
2.0452
2.04518
2.04512
2.04491
2.04332
2.04095
2.03877
2.03591
2.03296
2.02989
2.02651
2.02294
2.01924
2.01546
2.01155
2.00748
2.0034
1.99931
1.99529
1.99135
1.98758
1.98408
1.98082
1.97776
1.9749
1.97221
1.96981
1.96778
1.96606
1.96461
1.96352
1.96297
1.96283
1.9611
1.96114
1.96134
1.96258
1.96428
1.96594
1.96803
1.97043
1.9731
1.976
1.97912
1.98248
1.986
1.98962
1.99343
1.99744
2.00154
2.00581
2.01003
2.01417
2.01821
2.02214
2.02599
2.02949
2.03273
2.03593
2.03889
2.04138
2.04345
2.04516
2.04605
2.04619
2.04616
2.04598
2.04553
2.04378
2.04129
2.03888
2.0359
2.03271
2.02937
2.02579
2.02209
2.01819
2.01412
2.00987
2.00567
2.00157
1.99751
1.99354
1.98966
1.98593
1.98241
1.97905
1.97591
1.97303
1.97036
1.96795
1.96587
1.96415
1.96275
1.96174
1.96123
1.96111
1.95876
1.95884
1.95911
1.96043
1.96221
1.96393
1.96599
1.96836
1.97103
1.97398
1.97715
1.98053
1.98426
1.98805
1.99196
1.996
2.00006
2.00434
2.00872
2.01311
2.01744
2.02162
2.02571
2.02943
2.03291
2.03633
2.03934
2.04184
2.04396
2.04582
2.0469
2.04716
2.04717
2.04688
2.04623
2.04432
2.04175
2.03927
2.03633
2.03308
2.02948
2.02557
2.02153
2.01742
2.01311
2.00864
2.00427
2.0001
1.99597
1.99193
1.98802
1.98425
1.98062
1.97713
1.97388
1.97094
1.96827
1.96591
1.96384
1.96209
1.96065
1.95951
1.95889
1.95876
1.95648
1.95656
1.95685
1.95818
1.96
1.9618
1.96393
1.96629
1.96895
1.97196
1.97528
1.97881
1.98266
1.98664
1.99073
1.99491
1.99913
2.00358
2.00804
2.01249
2.01701
2.02143
2.02569
2.02964
2.03338
2.03686
2.0399
2.04246
2.04461
2.04643
2.04745
2.04772
2.04773
2.04748
2.04685
2.04488
2.04232
2.03983
2.03685
2.0335
2.02984
2.02583
2.02144
2.01696
2.0125
2.00801
2.00356
1.99921
1.99485
1.99062
1.98659
1.98269
1.97892
1.97531
1.97198
1.96895
1.96622
1.96384
1.96175
1.95996
1.95844
1.95722
1.95658
1.95646
1.95434
1.95439
1.95465
1.95594
1.95774
1.95957
1.96184
1.96431
1.96707
1.9702
1.97371
1.97739
1.98134
1.98549
1.98975
1.99407
1.99858
2.0033
2.00793
2.01247
2.01711
2.0216
2.02586
2.02996
2.03383
2.03737
2.04049
2.04316
2.04531
2.04694
2.0478
2.04802
2.04803
2.04783
2.04736
2.04547
2.04295
2.04043
2.03736
2.03389
2.03013
2.02614
2.02167
2.01706
2.01246
2.00788
2.00334
1.9988
1.99423
1.98981
1.98558
1.98145
1.97749
1.97376
1.97032
1.96719
1.96436
1.96184
1.9596
1.95774
1.95623
1.95508
1.95449
1.95435
1.95243
1.9525
1.95274
1.95404
1.95585
1.95769
1.96007
1.96275
1.96577
1.96906
1.97262
1.9764
1.9804
1.9848
1.98931
1.99384
1.99861
2.00348
2.00826
2.01297
2.01772
2.02226
2.02653
2.03052
2.03427
2.0378
2.04091
2.04357
2.04566
2.04724
2.04803
2.04817
2.04817
2.04804
2.04762
2.04585
2.04342
2.04092
2.03781
2.03427
2.03045
2.02645
2.02215
2.01765
2.01299
2.00828
2.00349
1.99865
1.99387
1.98928
1.98491
1.98059
1.97644
1.9726
1.96905
1.9658
1.96286
1.96018
1.95783
1.95588
1.95433
1.95323
1.95265
1.95246
1.95097
1.95106
1.95132
1.95271
1.95462
1.95651
1.95894
1.96181
1.96503
1.96845
1.97211
1.97601
1.98016
1.98468
1.98942
1.9942
1.99911
2.00403
2.00886
2.01365
2.01839
2.02297
2.02729
2.03117
2.03471
2.03804
2.04099
2.04353
2.0456
2.04727
2.04814
2.04829
2.0483
2.0482
2.04776
2.04597
2.0436
2.04119
2.03814
2.03474
2.03104
2.02707
2.02283
2.01834
2.01368
2.00893
2.004
1.99899
1.99405
1.98931
1.98475
1.98026
1.97593
1.97196
1.96826
1.96479
1.96166
1.95892
1.95657
1.95458
1.95293
1.95177
1.95117
1.95098
1.95005
1.95016
1.9505
1.95202
1.95402
1.95597
1.9584
1.96132
1.9646
1.96817
1.97203
1.97613
1.98045
1.98507
1.9899
1.99475
1.99966
2.00461
2.00952
2.01428
2.01892
2.02346
2.02775
2.03156
2.03501
2.03811
2.04084
2.04329
2.0454
2.04713
2.0481
2.04831