# vtk DataFile Version 3.0
vtk output
ASCII
DATASET UNSTRUCTURED_GRID
FIELD FieldData 2
TIME 1 1 double
0.22
CYCLE 1 1 int
11
POINTS 16705 double
0 0 0
0.00390625 0 0
0.0078125 0 0
0.0117188 0 0
0.015625 0 0
0.0195312 0 0
0.0234375 0 0
0.0273438 0 0
0.03125 0 0
0.0351562 0 0
0.0390625 0 0
0.0429688 0 0
0.046875 0 0
0.0507812 0 0
0.0546875 0 0
0.0585938 0 0
0.0625 0 0
0.0664062 0 0
0.0703125 0 0
0.0742188 0 0
0.078125 0 0
0.0820312 0 0
0.0859375 0 0
0.0898438 0 0
0.09375 0 0
0.0976562 0 0
0.101562 0 0
0.105469 0 0
0.109375 0 0
0.113281 0 0
0.117188 0 0
0.121094 0 0
0.125 0 0
0.128906 0 0
0.132812 0 0
0.136719 0 0
0.140625 0 0
0.144531 0 0
0.148438 0 0
0.152344 0 0
0.15625 0 0
0.160156 0 0
0.164062 0 0
0.167969 0 0
0.171875 0 0
0.175781 0 0
0.179688 0 0
0.183594 0 0
0.1875 0 0
0.191406 0 0
0.195312 0 0
0.199219 0 0
0.203125 0 0
0.207031 0 0
0.210938 0 0
0.214844 0 0
0.21875 0 0
0.222656 0 0
0.226562 0 0
0.230469 0 0
0.234375 0 0
0.238281 0 0
0.242188 0 0
0.246094 0 0
0.25 0 0
0 0.00390625 0
0.00390625 0.00390625 0
0.0078125 0.00390625 0
0.0117188 0.00390625 0
0.015625 0.00390625 0
0.0195312 0.00390625 0
0.0234375 0.00390625 0
0.0273438 0.00390625 0
0.03125 0.00390625 0
0.0351562 0.00390625 0
0.0390625 0.00390625 0
0.0429688 0.00390625 0
0.046875 0.00390625 0
0.0507812 0.00390625 0
0.0546875 0.00390625 0
0.0585938 0.00390625 0
0.0625 0.00390625 0
0.0664062 0.00390625 0
0.0703125 0.00390625 0
0.0742188 0.00390625 0
0.078125 0.00390625 0
0.0820312 0.00390625 0
0.0859375 0.00390625 0
0.0898438 0.00390625 0
0.09375 0.00390625 0
0.0976562 0.00390625 0
0.101562 0.00390625 0
0.105469 0.00390625 0
0.109375 0.00390625 0
0.113281 0.00390625 0
0.117188 0.00390625 0
0.121094 0.00390625 0
0.125 0.00390625 0
0.128906 0.00390625 0
0.132812 0.00390625 0
0.136719 0.00390625 0
0.140625 0.00390625 0
0.144531 0.00390625 0
0.148438 0.00390625 0
0.152344 0.00390625 0
0.15625 0.00390625 0
0.160156 0.00390625 0
0.164062 0.00390625 0
0.167969 0.00390625 0
0.171875 0.00390625 0
0.175781 0.00390625 0
0.179688 0.00390625 0
0.183594 0.00390625 0
0.1875 0.00390625 0
0.191406 0.00390625 0
0.195312 0.00390625 0
0.199219 0.00390625 0
0.203125 0.00390625 0
0.207031 0.00390625 0
0.210938 0.00390625 0
0.214844 0.00390625 0
0.21875 0.00390625 0
0.222656 0.00390625 0
0.226562 0.00390625 0
0.230469 0.00390625 0
0.234375 0.00390625 0
0.238281 0.00390625 0
0.242188 0.00390625 0
0.246094 0.00390625 0
0.25 0.00390625 0
0 0.0078125 0
0.00390625 0.0078125 0
0.0078125 0.0078125 0
0.0117188 0.0078125 0
0.015625 0.0078125 0
0.0195312 0.0078125 0
0.0234375 0.0078125 0
0.0273438 0.0078125 0
0.03125 0.0078125 0
0.0351562 0.0078125 0
0.0390625 0.0078125 0
0.0429688 0.0078125 0
0.046875 0.0078125 0
0.0507812 0.0078125 0
0.0546875 0.0078125 0
0.0585938 0.0078125 0
0.0625 0.0078125 0
0.0664062 0.0078125 0
0.0703125 0.0078125 0
0.0742188 0.0078125 0
0.078125 0.0078125 0
0.0820312 0.0078125 0
0.0859375 0.0078125 0
0.0898438 0.0078125 0
0.09375 0.0078125 0
0.0976562 0.0078125 0
0.101562 0.0078125 0
0.105469 0.0078125 0
0.109375 0.0078125 0
0.113281 0.0078125 0
0.117188 0.0078125 0
0.121094 0.0078125 0
0.125 0.0078125 0
0.128906 0.0078125 0
0.132812 0.0078125 0
0.136719 0.0078125 0
0.140625 0.0078125 0
0.144531 0.0078125 0
0.148438 0.0078125 0
0.152344 0.0078125 0
0.15625 0.0078125 0
0.160156 0.0078125 0
0.164062 0.0078125 0
0.167969 0.0078125 0
0.171875 0.0078125 0
0.175781 0.0078125 0
0.179688 0.0078125 0
0.183594 0.0078125 0
0.1875 0.0078125 0
0.191406 0.0078125 0
0.195312 0.0078125 0
0.199219 0.0078125 0
0.203125 0.0078125 0
0.207031 0.0078125 0
0.210938 0.0078125 0
0.214844 0.0078125 0
0.21875 0.0078125 0
0.222656 0.0078125 0
0.226562 0.0078125 0
0.230469 0.0078125 0
0.234375 0.0078125 0
0.238281 0.0078125 0
0.242188 0.0078125 0
0.246094 0.0078125 0
0.25 0.0078125 0
0 0.0117188 0
0.00390625 0.0117188 0
0.0078125 0.0117188 0
0.0117188 0.0117188 0
0.015625 0.0117188 0
0.0195312 0.0117188 0
0.0234375 0.0117188 0
0.0273438 0.0117188 0
0.03125 0.0117188 0
0.0351562 0.0117188 0
0.0390625 0.0117188 0
0.0429688 0.0117188 0
0.046875 0.0117188 0
0.0507812 0.0117188 0
0.0546875 0.0117188 0
0.0585938 0.0117188 0
0.0625 0.0117188 0
0.0664062 0.0117188 0
0.0703125 0.0117188 0
0.0742188 0.0117188 0
0.078125 0.0117188 0
0.0820312 0.0117188 0
0.0859375 0.0117188 0
0.0898438 0.0117188 0
0.09375 0.0117188 0
0.0976562 0.0117188 0
0.101562 0.0117188 0
0.105469 0.0117188 0
0.109375 0.0117188 0
0.113281 0.0117188 0
0.117188 0.0117188 0
0.121094 0.0117188 0
0.125 0.0117188 0
0.128906 0.0117188 0
0.132812 0.0117188 0
0.136719 0.0117188 0
0.140625 0.0117188 0
0.144531 0.0117188 0
0.148438 0.0117188 0
0.152344 0.0117188 0
0.15625 0.0117188 0
0.160156 0.0117188 0
0.164062 0.0117188 0
0.167969 0.0117188 0
0.171875 0.0117188 0
0.175781 0.0117188 0
0.179688 0.0117188 0
0.183594 0.0117188 0
0.1875 0.0117188 0
0.191406 0.0117188 0
0.195312 0.0117188 0
0.199219 0.0117188 0
0.203125 0.0117188 0
0.207031 0.0117188 0
0.210938 0.0117188 0
0.214844 0.0117188 0
0.21875 0.0117188 0
0.222656 0.0117188 0
0.226562 0.0117188 0
0.230469 0.0117188 0
0.234375 0.0117188 0
0.238281 0.0117188 0
0.242188 0.0117188 0
0.246094 0.0117188 0
0.25 0.0117188 0
0 0.015625 0
0.00390625 0.015625 0
0.0078125 0.015625 0
0.0117188 0.015625 0
0.015625 0.015625 0
0.0195312 0.015625 0
0.0234375 0.015625 0
0.0273438 0.015625 0
0.03125 0.015625 0
0.0351562 0.015625 0
0.0390625 0.015625 0
0.0429688 0.015625 0
0.046875 0.015625 0
0.0507812 0.015625 0
0.0546875 0.015625 0
0.0585938 0.015625 0
0.0625 0.015625 0
0.0664062 0.015625 0
0.0703125 0.015625 0
0.0742188 0.015625 0
0.078125 0.015625 0
0.0820312 0.015625 0
0.0859375 0.015625 0
0.0898438 0.015625 0
0.09375 0.015625 0
0.0976562 0.015625 0
0.101562 0.015625 0
0.105469 0.015625 0
0.109375 0.015625 0
0.113281 0.015625 0
0.117188 0.015625 0
0.121094 0.015625 0
0.125 0.015625 0
0.128906 0.015625 0
0.132812 0.015625 0
0.136719 0.015625 0
0.140625 0.015625 0
0.144531 0.015625 0
0.148438 0.015625 0
0.152344 0.015625 0
0.15625 0.015625 0
0.160156 0.015625 0
0.164062 0.015625 0
0.167969 0.015625 0
0.171875 0.015625 0
0.175781 0.015625 0
0.179688 0.015625 0
0.183594 0.015625 0
0.1875 0.015625 0
0.191406 0.015625 0
0.195312 0.015625 0
0.199219 0.015625 0
0.203125 0.015625 0
0.207031 0.015625 0
0.210938 0.015625 0
0.214844 0.015625 0
0.21875 0.015625 0
0.222656 0.015625 0
0.226562 0.015625 0
0.230469 0.015625 0
0.234375 0.015625 0
0.238281 0.015625 0
0.242188 0.015625 0
0.246094 0.015625 0
0.25 0.015625 0
0 0.0195312 0
0.00390625 0.0195312 0
0.0078125 0.0195312 0
0.0117188 0.0195312 0
0.015625 0.0195312 0
0.0195312 0.0195312 0
0.0234375 0.0195312 0
0.0273438 0.0195312 0
0.03125 0.0195312 0
0.0351562 0.0195312 0
0.0390625 0.0195312 0
0.0429688 0.0195312 0
0.046875 0.0195312 0
0.0507812 0.0195312 0
0.0546875 0.0195312 0
0.0585938 0.0195312 0
0.0625 0.0195312 0
0.0664062 0.0195312 0
0.0703125 0.0195312 0
0.0742188 0.0195312 0
0.078125 0.0195312 0
0.0820312 0.0195312 0
0.0859375 0.0195312 0
0.0898438 0.0195312 0
0.09375 0.0195312 0
0.0976562 0.0195312 0
0.101562 0.0195312 0
0.105469 0.0195312 0
0.109375 0.0195312 0
0.113281 0.0195312 0
0.117188 0.0195312 0
0.121094 0.0195312 0
0.125 0.0195312 0
0.128906 0.0195312 0
0.132812 0.0195312 0
0.136719 0.0195312 0
0.140625 0.0195312 0
0.144531 0.0195312 0
0.148438 0.0195312 0
0.152344 0.0195312 0
0.15625 0.0195312 0
0.160156 0.0195312 0
0.164062 0.0195312 0
0.167969 0.0195312 0
0.171875 0.0195312 0
0.175781 0.0195312 0
0.179688 0.0195312 0
0.183594 0.0195312 0
0.1875 0.0195312 0
0.191406 0.0195312 0
0.195312 0.0195312 0
0.199219 0.0195312 0
0.203125 0.0195312 0
0.207031 0.0195312 0
0.210938 0.0195312 0
0.214844 0.0195312 0
0.21875 0.0195312 0
0.222656 0.0195312 0
0.226562 0.0195312 0
0.230469 0.0195312 0
0.234375 0.0195312 0
0.238281 0.0195312 0
0.242188 0.0195312 0
0.246094 0.0195312 0
0.25 0.0195312 0
0 0.0234375 0
0.00390625 0.0234375 0
0.0078125 0.0234375 0
0.0117188 0.0234375 0
0.015625 0.0234375 0
0.0195312 0.0234375 0
0.0234375 0.0234375 0
0.0273438 0.0234375 0
0.03125 0.0234375 0
0.0351562 0.0234375 0
0.0390625 0.0234375 0
0.0429688 0.0234375 0
0.046875 0.0234375 0
0.0507812 0.0234375 0
0.0546875 0.0234375 0
0.0585938 0.0234375 0
0.0625 0.0234375 0
0.0664062 0.0234375 0
0.0703125 0.0234375 0
0.0742188 0.0234375 0
0.078125 0.0234375 0
0.0820312 0.0234375 0
0.0859375 0.0234375 0
0.0898438 0.0234375 0
0.09375 0.0234375 0
0.0976562 0.0234375 0
0.101562 0.0234375 0
0.105469 0.0234375 0
0.109375 0.0234375 0
0.113281 0.0234375 0
0.117188 0.0234375 0
0.121094 0.0234375 0
0.125 0.0234375 0
0.128906 0.0234375 0
0.132812 0.0234375 0
0.136719 0.0234375 0
0.140625 0.0234375 0
0.144531 0.0234375 0
0.148438 0.0234375 0
0.152344 0.0234375 0
0.15625 0.0234375 0
0.160156 0.0234375 0
0.164062 0.0234375 0
0.167969 0.0234375 0
0.171875 0.0234375 0
0.175781 0.0234375 0
0.179688 0.0234375 0
0.183594 0.0234375 0
0.1875 0.0234375 0
0.191406 0.0234375 0
0.195312 0.0234375 0
0.199219 0.0234375 0
0.203125 0.0234375 0
0.207031 0.0234375 0
0.210938 0.0234375 0
0.214844 0.0234375 0
0.21875 0.0234375 0
0.222656 0.0234375 0
0.226562 0.0234375 0
0.230469 0.0234375 0
0.234375 0.0234375 0
0.238281 0.0234375 0
0.242188 0.0234375 0
0.246094 0.0234375 0
0.25 0.0234375 0
0 0.0273438 0
0.00390625 0.0273438 0
0.0078125 0.0273438 0
0.0117188 0.0273438 0
0.015625 0.0273438 0
0.0195312 0.0273438 0
0.0234375 0.0273438 0
0.0273438 0.0273438 0
0.03125 0.0273438 0
0.0351562 0.0273438 0
0.0390625 0.0273438 0
0.0429688 0.0273438 0
0.046875 0.0273438 0
0.0507812 0.0273438 0
0.0546875 0.0273438 0
0.0585938 0.0273438 0
0.0625 0.0273438 0
0.0664062 0.0273438 0
0.0703125 0.0273438 0
0.0742188 0.0273438 0
0.078125 0.0273438 0
0.0820312 0.0273438 0
0.0859375 0.0273438 0
0.0898438 0.0273438 0
0.09375 0.0273438 0
0.0976562 0.0273438 0
0.101562 0.0273438 0
0.105469 0.0273438 0
0.109375 0.0273438 0
0.113281 0.0273438 0
0.117188 0.0273438 0
0.121094 0.0273438 0
0.125 0.0273438 0
0.128906 0.0273438 0
0.132812 0.0273438 0
0.136719 0.0273438 0
0.140625 0.0273438 0
0.144531 0.0273438 0
0.148438 0.0273438 0
[...]
CELL_DATA 16384
SCALARS solution double
LOOKUP_TABLE default
2.00303
2.00298
2.003
2.00312
2.00318
2.00319
2.00323
2.00333
2.00352
2.00376
2.00402
2.00432
2.00462
2.00489
2.0052
2.00552
2.0058
2.00643
2.00717
2.00741
2.00763
2.00819
2.00866
2.00877
2.0091
2.00942
2.00955
2.00964
2.00992
2.01017
2.01023
2.01012
2.01031
2.01017
2.0098
2.00965
2.00955
2.00937
2.00913
2.00882
2.0085
2.00816
2.00782
2.00758
2.00722
2.00683
2.00646
2.00614
2.00582
2.00548
2.00513
2.0048
2.00451
2.00426
2.00409
2.00391
2.0037
2.00346
2.00327
2.00321
2.00311
2.00305
2.00304
2.00299
2.00859
2.0085
2.00851
2.00878
2.00866
2.0086
2.00859
2.00866
2.00887
2.00915
2.00945
2.0098
2.01013
2.01041
2.01073
2.0111
2.01133
2.01229
2.01352
2.01366
2.01373
2.01477
2.01538
2.015
2.01563
2.01579
2.01584
2.0157
2.01623
2.01691
2.01697
2.01688
2.01675
2.01707
2.01637
2.01573
2.01553
2.01533
2.01507
2.01471
2.01439
2.01407
2.01368
2.01352
2.01309
2.01264
2.01235
2.01199
2.01166
2.0112
2.0108
2.01044
2.0101
2.00984
2.00977
2.00959
2.00936
2.0091
2.00894
2.00877
2.00875
2.00862
2.00857
2.0087
1.99893
1.99892
1.99897
1.99928
1.99956
1.99971
1.99995
2.00027
2.00069
2.00121
2.00177
2.00239
2.00303
2.00373
2.00446
2.00516
2.00586
2.00704
2.00825
2.00869
2.00907
2.00993
2.01105
2.01172
2.01236
2.01286
2.01311
2.01326
2.01353
2.01404
2.01421
2.01412
2.01429
2.014
2.01328
2.01321
2.01318
2.01276
2.01212
2.0115
2.01085
2.01016
2.00955
2.0091
2.0084
2.00757
2.00677
2.00612
2.00544
2.00472
2.00401
2.00329
2.00267
2.00209
2.00159
2.0011
2.00063
2.0002
1.99982
1.99955
1.99933
1.99919
1.99913
1.99899
1.98933
1.98934
1.98943
1.98988
1.99039
1.9908
1.99131
1.99188
1.99254
1.99327
1.99406
1.99494
1.99587
1.99699
1.99808
1.9991
2.00027
2.0017
2.00284
2.00364
2.00431
2.00509
2.00603
2.00685
2.0076
2.00839
2.00895
2.00984
2.01062
2.0106
2.01065
2.01074
2.01075
2.0105
2.01019
2.0099
2.00961
2.00904
2.00821
2.00743
2.00658
2.00566
2.00476
2.00395
2.00303
2.00203
2.00109
2.00016
1.99914
1.99806
1.99704
1.996
1.99514
1.99424
1.99334
1.99256
1.99188
1.99135
1.99083
1.99033
1.98988
1.98962
1.98954
1.98941
1.98943
1.98943
1.98949
1.98992
1.99042
1.99083
1.99135
1.99193
1.99258
1.9933
1.99411
1.99502
1.99597
1.99707
1.99815
1.99917
2.00025
2.00157
2.00274
2.00357
2.00444
2.00543
2.0063
2.00696
2.00766
2.00846
2.00896
2.00966
2.01046
2.01073
2.01092
2.01097
2.01094
2.01089
2.01069
2.01028
2.00986
2.00933
2.00863
2.00788
2.00705
2.00622
2.0053
2.00436
2.00338
2.00233
2.00129
2.00031
1.9992
1.99811
1.99709
1.99606
1.99518
1.99427
1.99338
1.99261
1.99191
1.99138
1.99089
1.99042
1.98999
1.98969
1.9896
1.9895
1.98921
1.98922
1.98935
1.98976
1.99013
1.99054
1.99108
1.99173
1.99245
1.99322
1.99409
1.99508
1.99607
1.99713
1.99823
1.99928
2.00031
2.00148
2.00275
2.00374
2.00487
2.006
2.00703
2.0079
2.00865
2.00936
2.00998
2.01053
2.01107
2.01162
2.01193
2.01195
2.01196
2.01193
2.01169
2.01124
2.01077
2.01021
2.00955
2.00883
2.00799
2.00708
2.00605
2.00497
2.00386
2.00271
2.00155
2.00048
1.99928
1.99816
1.99716
1.99611
1.9951
1.9941
1.99321
1.99239
1.99159
1.99101
1.99053
1.99006
1.98967
1.98941
1.98934
1.98926
1.98835
1.98836
1.98857
1.98893
1.98926
1.98974
1.99035
1.99106
1.99186
1.99274
1.99371
1.99475
1.99582
1.99691
1.99809
1.99931
2.00042
2.00158
2.00286
2.004
2.00529
2.00647
2.00757
2.00863
2.00949
2.01031
2.01103
2.01164
2.01215
2.01258
2.0128
2.01286
2.0129
2.01288
2.0126
2.01212
2.01163
2.01099
2.01028
2.00949
2.0086
2.00757
2.00645
2.00531
2.00417
2.00295
2.0017
2.00053
1.99928
1.99808
1.997
1.99589
1.99474
1.99363
1.99268
1.99182
1.99098
1.99028
1.98972
1.98923
1.98884
1.98856
1.98842
1.98835
1.98743
1.98747
1.98767
1.98806
1.98846
1.989
1.98965
1.9904
1.99128
1.99224
1.99323
1.99431
1.99546
1.99665
1.99789
1.99923
2.00047
2.00174
2.00307
2.00425
2.00558
2.00679
2.00789
2.009
2.00996
2.01087
2.01169
2.01236
2.0129
2.01334
2.01359
2.01368
2.01365
2.01359
2.0133
2.01286
2.01236
2.01166
2.01089
2.01002
2.00901
2.00793
2.0068
2.00563
2.00442
2.00313
2.00178
2.00051
1.99924
1.99794
1.99673
1.99555
1.99436
1.99323
1.99221
1.9913
1.99044
1.98967
1.98903
1.98848
1.98807
1.98775
1.98755
1.98744
1.98677
1.9868
1.987
1.98742
1.98785
1.98843
1.98911
1.98991
1.99083
1.99184
1.9929
1.99404
1.99525
1.9965
1.9978
1.99916
2.00051
2.00189
2.00326
2.00454
2.00589
2.00713
2.00825
2.00938
2.01041
2.01138
2.01224
2.01292
2.01348
2.01395
2.01424
2.01432
2.0143
2.01421
2.0139
2.01346
2.01293
2.01221
2.01142
2.01052
2.00949
2.00835
2.00718
2.00593
2.00461
2.00326
2.00186
2.00053
1.9992
1.99782
1.99653
1.99527
1.99403
1.99289
1.99181
1.99084
1.98996
1.98914
1.98847
1.98789
1.98742
1.98708
1.98685
1.98675
1.98619
1.98624
1.98647
1.98688
1.98731
1.98791
1.98864
1.98949
1.99044
1.99146
1.99256
1.99376
1.99505
1.99639
1.99774
1.99912
2.00053
2.00197
2.0034
2.00477
2.00617
2.00747
2.00863
2.00977
2.01085
2.01186
2.01272
2.01342
2.01396
2.01441
2.01471
2.01484
2.01487
2.01481
2.01445
2.01395
2.01337
2.01265
2.01184
2.0109
2.00984
2.0087
2.00748
2.00617
2.00479
2.00338
2.00195
2.00058
1.99915
1.99771
1.99638
1.99504
1.99372
1.99255
1.99142
1.99039
1.98947
1.98861
1.98791
1.9873
1.98681
1.98646
1.98625
1.98617
1.98562
1.98567
1.9859
1.98632
1.98677
1.98741
1.98816
1.98905
1.99005
1.99111
1.99226
1.99351
1.99484
1.99622
1.99765
1.99906
2.00052
2.00201
2.00349
2.00496
2.00641
2.00775
2.00898
2.01013
2.01123
2.01226
2.01313
2.01387
2.01445
2.01489
2.01521
2.01535
2.01537
2.01533
2.01497
2.01442
2.01383
2.01307
2.01221
2.01123
2.01014
2.00897
2.0077
2.00634
2.00492
2.00349
2.00204
2.00062
1.9991
1.99759
1.99624
1.99482
1.99346
1.99225
1.99108
1.99
1.989
1.9881
1.98738
1.98676
1.98624
1.98587
1.98566
1.98561
1.98503
1.98506
1.98531
1.98575
1.98628
1.98694
1.98769
1.98861
1.98964
1.99077
1.99199
1.99328
1.99464
1.99605
1.99755
1.99903
2.00054
2.00208
2.00358
2.00511
2.00661
2.008
2.00928
2.01047
2.01159
2.01264
2.01353
2.01432
2.01496
2.01543
2.01574
2.01585
2.01584
2.01579
2.01543
2.01488
2.01429
2.01352
2.01264
2.01165
2.01054
2.00932
2.00796
2.00653
2.00507
2.0036
2.00211
2.00064
1.99905
1.9975
1.99609
1.99461
1.99323
1.99199
1.99078
1.98967
1.98863
1.98769
1.98693
1.98628
1.98575
1.98534
1.98509
1.98503
1.98445
1.9845
1.98476
1.98526
1.98584
1.98653
1.98732
1.98826
1.9893
1.99045
1.99172
1.99305
1.99447
1.99593
1.99748
1.99902
2.00059
2.00218
2.00369
2.00523
2.00677
2.00824
2.00959
2.01082
2.01198
2.01305
2.01396
2.01476
2.01543
2.01592
2.01621
2.01633
2.01634
2.01628
2.01593
2.01537
2.01476
2.01397
2.01306
2.01203
2.01086
2.00957
2.00817
2.00671
2.00524
2.00374
2.00216
2.00062
1.99899
1.99743
1.99596
1.99444
1.99305
1.99176
1.99049
1.98935
1.98828
1.98733
1.98653
1.98584
1.98528
1.98484
1.98456
1.98446
1.98394
1.98401
1.9843
1.98483
1.98542
1.98614
1.98697
1.98794
1.98902
1.99019
1.99149
1.99286
1.99433
1.99583
1.9974
1.99898
2.00059
2.00225
2.0038
2.00535
2.00691
2.00843
2.00984
2.01112
2.0123
2.01339
2.01431
2.01511
2.01578
2.01628
2.01657
2.01671
2.01674
2.0167
2.01635
2.01579
2.01515
2.01431
2.01335
2.01227
2.01104
2.00973
2.00833
2.00689
2.00541
2.00384
2.0022
2.00061
1.99896
1.99737
1.99586
1.9943
1.99289
1.99153
1.99021
1.98902
1.98791
1.98696
1.98614
1.98542
1.98484
1.98438
1.98409
1.98395
1.98351
1.98358
1.98388
1.98441
1.985
1.98573
1.98657
1.98758
1.98872
1.98995
1.99127
1.99269
1.99419
1.99572
1.99733
1.99894
2.00058
2.00229
2.0039
2.00548
2.00705
2.00857
2.01
2.01132
2.01253
2.01363
2.01459
2.01541
2.01609
2.0166
2.01689
2.01704
2.01707
2.01702
2.01667
2.0161
2.01543
2.01457
2.01361
2.0125
2.01125
2.00994
2.00856
2.0071
2.00554
2.0039
2.00223
2.00061
1.99895
1.99732
1.99574
1.99414
1.99269
1.99127
1.98993
1.9887
1.98754
1.98655
1.98572
1.98499
1.98439
1.98396
1.98368
1.98354
1.98313
1.98317
1.98345
1.98396
1.98454
1.98529
1.98614
1.98719
1.9884
1.98967
1.99101
1.99246
1.99401
1.9956
1.99726
1.99891
2.00059
2.00233
2.00399
2.00562
2.00719
2.00872
2.01018
2.01154
2.01278
2.01389
2.01487
2.01571
2.01642
2.01694
2.01726
2.0174
2.01742
2.01737
2.01701
2.01641
2.01573
2.01486
2.01387
2.01275
2.01152
2.0102
2.00878
2.00725
2.00563
2.00396
2.00227
2.00063
1.99894
1.99727
1.99562
1.99399
1.99246
1.99099
1.98963
1.98839
1.9872
1.98616
1.98529
1.98456
1.98395
1.98353
1.98327
1.98315
1.98276
1.98281
1.98306
1.98353
1.98413
1.98492
1.98582
1.98688
1.9881
1.9894
1.99078
1.99227
1.99386
1.99549
1.99719
1.99888
2.00061
2.00239
2.00408
2.00573
2.00733
2.0089
2.01039
2.01179
2.01307
2.01418
2.01517
2.01602
2.01672
2.01727
2.0176
2.01774
2.01777
2.01772
2.01734
2.01671
2.01604
2.01516
2.01417
2.01305
2.01181
2.01044
2.00895
2.00736
2.00571
2.00404
2.00233
2.00063
1.99891
1.99719
1.99549
1.99384
1.99227
1.99076
1.98938
1.98812
1.98693
1.98587
1.98494
1.98416
1.98355
1.98313
1.98287
1.98276
1.98241
1.98248
1.9827
1.98319
1.98382
1.98469
1.98563
1.98668
1.98788
1.9892
1.99061
1.99213
1.99374
1.9954
1.99712
1.99884
2.00061
2.00244
2.00417
2.00585
2.0075
2.00909
2.0106
2.01202
2.01331
2.01445
2.01547
2.01632
2.01703
2.01757
2.0179
2.01805
2.01808
2.01802
2.01762
2.017
2.01634
2.01546
2.01445
2.01331
2.01203
2.01061
2.00909
2.00749
2.00583
2.00414
2.00239
2.00063
1.99886
1.99711
1.99538
1.99373
1.99215
1.99061
1.98918
1.98789
1.98671
1.98563
1.98465
1.9838
1.98317
1.98276
1.98251
1.98239
1.98206
1.98213
1.98235
1.98289
1.98356
1.98443
1.9854
1.98648
1.98768
1.98901
1.99045
1.99199
1.99362
1.9953
1.99705
1.99881
2.00061
2.00247
2.00424
2.00596
2.00766
2.00928
2.0108
2.01223
2.01355
2.01471
2.01575
2.01662
2.01732
2.01786
2.01818
2.01833
2.01836
2.0183
2.01791
2.01729
2.01662
2.01574
2.0147
2.01351
2.01219
2.01076
2.00923
2.00762
2.00594
2.00421
2.00243
2.00064
1.99885
1.99706
1.99531
1.99364
1.99203
1.99046
1.989
1.98768
1.98649
1.9854
1.98441
1.98353
1.98286
1.98243
1.98217
1.98205
1.98169
1.98173
1.98198
1.98258
1.98329
1.98414
1.98512
1.98623
1.98746
1.98882
1.99028
1.99184
1.99351
1.99521
1.99699
1.99878
2.00062
2.0025
2.00429
2.00604
2.00776
2.00941
2.01097
2.01244
2.01378
2.01496
2.01601
2.01688
2.0176
2.01814
2.01847
2.01861
2.01863
2.01858
2.0182
2.01755
2.01688
2.01599
2.01494
2.01372
2.01238
2.01093
2.00938
2.00773
2.00602
2.00426
2.00246
2.00065
1.99884
1.99702
1.99524
1.99353
1.99187
1.99028
1.98882
1.98747
1.98624
1.98514
1.98415
1.98329
1.9826
1.9821
1.9818
1.98168
1.98132
1.98136
1.98164
1.98228
1.98301
1.98384
1.98482
1.98597
1.98723
1.98863
1.99012
1.9917
1.99341
1.99516
1.99696
1.99877
2.00062
2.00252
2.00435
2.00612
2.00786
2.00953
2.01111
2.01261
2.01397
2.01517
2.01623
2.01714
2.01787
2.01842
2.01877
2.01893
2.01891
2.01883
2.01846
2.01779
2.01709
2.01619
2.01515
2.01393
2.01259
2.01111
2.00952
2.00785
2.00611
2.00433
2.0025
2.00066
1.99882
1.99696
1.99516
1.99342
1.99173
1.99012
1.98862
1.98721
1.98593
1.98481
1.98384
1.98301
1.98231
1.98179
1.98144
1.98132
1.98098
1.98104
1.98137
1.98203
1.98274
1.98356
1.98457
1.98572
1.98701
1.98844
1.98997
1.99159
1.99332
1.9951
1.99693
1.99876
2.00064
2.00255
2.0044
2.0062
2.00796
2.00965
2.01125
2.01274
2.0141
2.01532
2.01641
2.01733
2.01809
2.01865
2.01901
2.01916
2.01913
2.01904
2.01868
2.01801
2.01729
2.01637
2.01532
2.0141
2.01275
2.01125
2.00964
2.00796
2.00621
2.00441
2.00255
2.00067
1.99878
1.99691
1.9951
1.99334
1.99162
1.98999
1.98843
1.987
1.9857
1.98455
1.98357
1.98272
1.98202
1.98148
1.98112
1.98098
1.98067
1.98076
1.9811
1.98174
1.98246
1.98329
1.98432
1.98549
1.9868
1.98826
1.98984
1.99149
1.99324
1.99503
1.99689
1.99876
2.00066
2.00258
2.00445
2.00628
2.00807
2.00977
2.01137
2.01287
2.01424
2.01547
2.01656
2.01749
2.01824
2.0188
2.01916
2.01932
2.01929
2.01923
2.01889
2.01821
2.01749
2.01654
2.01547
2.01425
2.01289
2.01138
2.00977
2.00809
2.00631
2.00448
2.00259
2.00067
1.99876
1.99688
1.99504
1.99325
1.99151
1.98986
1.98829
1.98684
1.98553
1.98434
1.98333
1.98246
1.98173
1.98119
1.98084
1.98067
1.98048
1.98056
1.98083
1.98145
1.9822
1.98307
1.9841
1.98529
1.98663
1.9881
1.98971
1.99138
1.99314
1.99497
1.99687
1.99876
2.00068
2.00262
2.0045
2.00637
2.00818
2.0099
2.0115
2.013
2.0144
2.01565
2.01675
2.01767
2.01843
2.01899
2.01935
2.01951
2.0195
2.01945
2.0191
2.01842
2.01768
2.01672
2.01564
2.0144
2.01302
2.01151
2.0099
2.0082
2.0064
2.00452
2.0026
2.00068
1.99876
1.99685
1.99498
1.99316
1.9914
1.98973
1.98813
1.98664
1.98529
1.9841
1.98308
1.98221
1.98149
1.98097
1.98063
1.98047
1.98027
1.98035
1.98057
1.98118
1.98197
1.9829
1.98393
1.98515
1.98651
1.98799
1.98959
1.99128
1.99305
1.9949
1.99683
1.99877
2.00071
2.00265
2.00456
2.00645
2.00827
2.01001
2.01164
2.01316
2.01457
2.01584
2.01693
2.01787
2.01863
2.0192
2.01956
2.01972
2.0197
2.01966
2.01931
2.01863
2.01789
2.01693
2.01583
2.01457
2.01317
2.01164
2.01
2.00828
2.00646
2.00457
2.00264
2.0007
1.99875
1.99681
1.99491
1.99306
1.99129
1.98961
1.98799
1.98647
1.9851
1.9839
1.98288
1.982
1.98127
1.98075
1.98041
1.98026
1.98002
1.98012
1.98035
1.98098
1.98179
1.98273
1.98377
1.98499
1.98639
1.98787
1.98948
1.9912
1.99299
1.99484
1.99679
1.99876
2.00074
2.00269
2.00461
2.00652
2.00836
2.01011
2.01176
2.01331
2.01475
2.01602
2.01712
2.01805
2.01881
2.01939
2.01976
2.01989
2.01987
2.01983
2.01949
2.01881
2.01808
2.01712
2.016
2.01473
2.01331
2.01177
2.01011
2.00836
2.00652
2.00462
2.00268
2.00072
1.99875
1.99679
1.99487
1.99298
1.99118
1.98949
1.98789
1.98638
1.98499
1.98376
1.9827
1.98178
1.98104
1.98051
1.98017
1.98002
1.97976
1.97985
1.98016
1.98082
1.9816
1.98253
1.98359
1.98481
1.98623
1.98774
1.98935
1.9911
1.99293
1.99481
1.99675
1.99874
2.00075
2.00272
2.00467
2.00659
2.00844
2.0102
2.01187
2.01345
2.0149
2.01618
2.01729
2.01821
2.01896
2.01955
2.01993
2.02007
2.02006
2.02001
2.01964
2.01894
2.0182
2.01725
2.01613
2.01484
2.01342
2.01187
2.01022
2.00845
2.00659
2.00468
2.00272
2.00073
1.99874
1.99678
1.99483
1.99292
1.99108
1.98936
1.98775
1.98623
1.98483
1.98358
1.9825
1.98155
1.9808
1.98026
1.97991
1.97974
1.97955
1.97965
1.97999
1.98065
1.98139
1.9823
1.98339
1.98466
1.98609
1.98762
1.98926
1.99102
1.99288
1.99479
1.99674
1.99874
2.00075
2.00275
2.00472
2.00665
2.00851
2.01029
2.01197
2.01354
2.015
2.0163
2.01742
2.01834
2.01909
2.01968
2.02009
2.02024
2.02023
2.02017
2.01978
2.01906
2.01831
2.01738
2.01627
2.01497
2.01353
2.01197
2.0103
2.00853
2.00666
2.00475
2.00276
2.00074
1.99874
1.99676
1.99479
1.99287
1.99103
1.98927
1.98763
1.9861
1.98469
1.98343
1.98234
1.98138
1.98061
1.98006
1.9797
1.97953
1.97942
1.9795
1.97984
1.98048
1.9812
1.98212
1.98326
1.98456
1.986
1.98755
1.98921
1.99098
1.99284
1.99477
1.99676
1.99876
2.00077
2.00278
2.00476
2.0067
2.00858
2.01038
2.01207
2.01363
2.01507
2.01638
2.01752
2.01846
2.01922
2.01982
2.02021
2.02035
2.02033
2.02031
2.01991
2.0192
2.01844
2.01752
2.01641
2.0151
2.01366
2.0121
2.01039
2.00859
2.00672
2.00479
2.00279
2.00076
1.99875
1.99676
1.99478
1.99286
1.99102
1.98924
1.98755
1.986
1.98459
1.98333
1.98223
1.98126
1.98047
1.97991
1.97954
1.97939
1.97928
1.97937
1.9797
1.98035
1.9811
1.98204
1.9832
1.9845
1.98594
1.98751
1.98918
1.99095
1.99283
1.99475
1.99676
1.99878
2.0008
2.00281
2.0048
2.00674
2.00863
2.01045
2.01215
2.01371
2.01513
2.01642
2.01758
2.01856
2.01935
2.01994
2.0203
2.02044
2.02043
2.02041
2.02001
2.01933
2.01856
2.01762
2.01649
2.01518
2.01374
2.01217
2.01044
2.00862
2.00674
2.00481
2.00282
2.00079
1.99877
1.99675
1.99476
1.99285
1.99101
1.9892
1.98746
1.98588
1.98447
1.98319
1.98208
1.98113
1.98036
1.97977
1.9794
1.97926
1.97915
1.97924
1.97957
1.98023
1.981
1.98198
1.98312
1.98442
1.98585
1.98745
1.98915
1.99093
1.99282
1.99476
1.99676
1.99878
2.00082
2.00286
2.00485
2.00679
2.00868
2.01048
2.0122
2.01377
2.01519
2.01648
2.01765
2.01864
2.01943
2.01999
2.02036
2.02051
2.02051
2.02046
2.02006
2.01939
2.01863
2.01767
2.01654
2.01522
2.01378
2.0122
2.01048
2.00867
2.00679
2.00484
2.00286
2.00083
1.99879
1.99677
1.99476
1.99283
1.99098
1.98916
1.98741
1.98582
1.98441
1.98311
1.98198
1.98106
1.98029
1.9797
1.9793
1.97913
1.97911
1.97918
1.97948
1.98015
1.98096
1.98195
1.98311
1.98437
1.98579
1.98741
1.98912
1.99092
1.99282
1.99478
1.99677
1.9988
2.00085
2.0029
2.00491
2.00685
2.00872
2.01051
2.01222
2.01381
2.01524
2.01654
2.01768
2.01865
2.01945
2.02003
2.0204
2.02056
2.02054
2.02047
2.02008
2.01941
2.01867
2.01769
2.01657
2.01526
2.01381
2.01223
2.01053
2.00872
2.00683
2.00488
2.00289
2.00085
1.99881
1.99678
1.99477
1.99283
1.99096
1.98916
1.98745
1.98587
1.98443
1.98311
1.98198
1.98104
1.98025
1.97965
1.97926
1.97908
1.97906
1.97914
1.97944
1.98012
1.98095
1.98196
1.98312
1.98442
1.98586
1.98745
1.98914
1.99094
1.99285
1.99482
1.99682
1.99885
2.00088
2.00292
2.00492
2.00685
2.00874
2.01054
2.01224
2.01381
2.01525
2.01655
2.01768
2.01863
2.01943
2.02002
2.0204
2.02054
2.0205
2.02044
2.02008
2.01942
2.01866
2.01768
2.01656
2.01528
2.01383
2.01224
2.01055
2.00875
2.00688
2.00493
2.00291
2.00087
1.99882
1.99679
1.99479
1.99283
1.99094
1.98914
1.98745
1.98588
1.98443
1.98312
1.98198
1.98098
1.98016
1.97959
1.9792
1.97904
1.97902
1.9791
1.97946
1.98017
1.98099
1.98198
1.98314
1.98447
1.98592
1.98752
1.98922
1.99101
1.99291
1.99488
1.99689
1.99891
2.00093
2.00294
2.00491
2.00685
2.00873
2.01054
2.01222
2.01378
2.01522
2.01652
2.01764
2.01859
2.01939
2.01998
2.02036
2.0205
2.02046
2.02039
2.02002
2.01936
2.0186
2.01762
2.01651
2.01525
2.0138
2.01223
2.01053
2.00874
2.00688
2.00494
2.00293
2.0009
1.99887
1.99684
1.99483
1.99284
1.99095
1.98915
1.98747
1.9859
1.98445
1.98315
1.98201
1.98097
1.98012
1.97956
1.97918
1.97901
1.97915
1.9792
1.97961
1.98033
1.98111
1.98208
1.98322
1.98452
1.98596
1.98754
1.98926
1.99107
1.99296
1.99491
1.99692
1.99894
2.00096
2.00297
2.00493
2.00686
2.00874
2.01052
2.01218
2.01374
2.01516
2.01643
2.01753
2.01849
2.01929
2.01991
2.02028
2.02043
2.02041
2.02031
2.01992
2.01927
2.0185
2.01754
2.01644
2.01518
2.01376
2.01219
2.01051
2.00872
2.00686
2.00493
2.00296
2.00094
1.99892
1.99693
1.99491
1.99292
1.99105
1.98926
1.98756
1.98599
1.9845
1.98319
1.98205
1.98104
1.98022
1.97967
1.9793
1.97913
1.97932
1.97938
1.97982
1.98053
1.9813
1.98224
1.98337
1.98464
1.98608
1.98766
1.98937
1.99116
1.99305
1.99499
1.99696
1.99895
2.00097
2.00298
2.00494
2.00686
2.00871
2.01046
2.0121
2.01363
2.01504
2.01628
2.01737
2.01832
2.0191
2.01972
2.02008
2.02022
2.02024
2.02015
2.01975
2.01912
2.01837
2.01741
2.01629
2.01505
2.01366
2.01211
2.01044
2.00868
2.00682
2.00491
2.00298
2.00099
1.99898
1.99698
1.99498
1.99302
1.99116
1.98938
1.98768
1.98611
1.98463
1.98331
1.98219
1.98121
1.98039
1.97981
1.97945
1.97929
1.97957
1.97962
1.98
1.98067
1.98146
1.98242
1.98357
1.98485
1.98631
1.98789
1.98956
1.99132
1.99317
1.9951
1.99706
1.99901
2.00098
2.00296
2.00492
2.00682
2.00863
2.01035
2.01198
2.01351
2.01489
2.01613
2.01723
2.01816
2.01891
2.01949
2.01984
2.01998
2.02001
2.01996
2.01952
2.01887
2.01811
2.01717
2.01609
2.01485
2.01348
2.01198
2.01035
2.00862
2.00679
2.00491
2.00299
2.00103
1.99903
1.99704
1.99508
1.99317
1.99133
1.98955
1.98785
1.98627
1.98482
1.98353
1.98242
1.98148
1.98067
1.98007
1.9797
1.97953
1.98
1.98003
1.98031
1.98096
1.98177
1.98273
1.98387
1.98516
1.98659
1.98811
1.98975
1.99149
1.9933
1.99519
1.99714
1.99908
2.00103
2.00298
2.00489
2.00674
2.00852
2.01021
2.01181
2.01328
2.01463
2.01584
2.01692
2.01786
2.01862
2.01919
2.01953
2.01967
2.0197
2.01964
2.0192
2.01854
2.0178
2.01688
2.01585
2.01461
2.01326
2.0118
2.01023
2.00851
2.00673
2.00489
2.00297
2.00102
1.99906
1.99715
1.99526
1.99339
1.99155
1.98978
1.98811
1.98656
1.98514
1.98388
1.98278
1.98186
1.98107
1.98047
1.98011
1.97996
1.98041
1.98048
1.98078
1.98144
1.98227
1.98319
1.98426
1.98554
1.98692
1.9884
1.99
1.99171
1.99347
1.9953
1.9972
1.99912
2.00105
2.00296
2.00482
2.00664
2.00839
2.01002
2.01156
2.01299
2.0143
2.0155
2.01656
2.01748
2.01822
2.01877
2.01911
2.01925
2.01927
2.01921
2.01881
2.01818
2.01747
2.01658
2.01557
2.01435
2.01301
2.01157
2.01003
2.00836
2.00662
2.00479
2.0029
2.00101
1.99913
1.99729
1.99542
1.99357
1.99174
1.99
1.9884
1.98688
1.98548
1.98426
1.98316
1.98224
1.98147
1.98088
1.98051
1.98038
1.9809
1.981
1.98135
1.982
1.9828
1.98369
1.98471
1.98594
1.98731
1.98879
1.99038
1.99203
1.99373
1.99549
1.99732
1.99918
2.00105
2.00289
2.00471
2.00649
2.00817
2.00975
2.01125
2.01265
2.01393
2.01509
2.01613
2.01702
2.01773
2.01826
2.0186