# vtk DataFile Version 3.0
vtk output
ASCII
DATASET UNSTRUCTURED_GRID
FIELD FieldData 2
TIME 1 1 double
2.28
CYCLE 1 1 int
114
POINTS 16705 double
0 0 0
0.00390625 0 0
0.0078125 0 0
0.0117188 0 0
0.015625 0 0
0.0195312 0 0
0.0234375 0 0
0.0273438 0 0
0.03125 0 0
0.0351562 0 0
0.0390625 0 0
0.0429688 0 0
0.046875 0 0
0.0507812 0 0
0.0546875 0 0
0.0585938 0 0
0.0625 0 0
0.0664062 0 0
0.0703125 0 0
0.0742188 0 0
0.078125 0 0
0.0820312 0 0
0.0859375 0 0
0.0898438 0 0
0.09375 0 0
0.0976562 0 0
0.101562 0 0
0.105469 0 0
0.109375 0 0
0.113281 0 0
0.117188 0 0
0.121094 0 0
0.125 0 0
0.128906 0 0
0.132812 0 0
0.136719 0 0
0.140625 0 0
0.144531 0 0
0.148438 0 0
0.152344 0 0
0.15625 0 0
0.160156 0 0
0.164062 0 0
0.167969 0 0
0.171875 0 0
0.175781 0 0
0.179688 0 0
0.183594 0 0
0.1875 0 0
0.191406 0 0
0.195312 0 0
0.199219 0 0
0.203125 0 0
0.207031 0 0
0.210938 0 0
0.214844 0 0
0.21875 0 0
0.222656 0 0
0.226562 0 0
0.230469 0 0
0.234375 0 0
0.238281 0 0
0.242188 0 0
0.246094 0 0
0.25 0 0
0 0.00390625 0
0.00390625 0.00390625 0
0.0078125 0.00390625 0
0.0117188 0.00390625 0
0.015625 0.00390625 0
0.0195312 0.00390625 0
0.0234375 0.00390625 0
0.0273438 0.00390625 0
0.03125 0.00390625 0
0.0351562 0.00390625 0
0.0390625 0.00390625 0
0.0429688 0.00390625 0
0.046875 0.00390625 0
0.0507812 0.00390625 0
0.0546875 0.00390625 0
0.0585938 0.00390625 0
0.0625 0.00390625 0
0.0664062 0.00390625 0
0.0703125 0.00390625 0
0.0742188 0.00390625 0
0.078125 0.00390625 0
0.0820312 0.00390625 0
0.0859375 0.00390625 0
0.0898438 0.00390625 0
0.09375 0.00390625 0
0.0976562 0.00390625 0
0.101562 0.00390625 0
0.105469 0.00390625 0
0.109375 0.00390625 0
0.113281 0.00390625 0
0.117188 0.00390625 0
0.121094 0.00390625 0
0.125 0.00390625 0
0.128906 0.00390625 0
0.132812 0.00390625 0
0.136719 0.00390625 0
0.140625 0.00390625 0
0.144531 0.00390625 0
0.148438 0.00390625 0
0.152344 0.00390625 0
0.15625 0.00390625 0
0.160156 0.00390625 0
0.164062 0.00390625 0
0.167969 0.00390625 0
0.171875 0.00390625 0
0.175781 0.00390625 0
0.179688 0.00390625 0
0.183594 0.00390625 0
0.1875 0.00390625 0
0.191406 0.00390625 0
0.195312 0.00390625 0
0.199219 0.00390625 0
0.203125 0.00390625 0
0.207031 0.00390625 0
0.210938 0.00390625 0
0.214844 0.00390625 0
0.21875 0.00390625 0
0.222656 0.00390625 0
0.226562 0.00390625 0
0.230469 0.00390625 0
0.234375 0.00390625 0
0.238281 0.00390625 0
0.242188 0.00390625 0
0.246094 0.00390625 0
0.25 0.00390625 0
0 0.0078125 0
0.00390625 0.0078125 0
0.0078125 0.0078125 0
0.0117188 0.0078125 0
0.015625 0.0078125 0
0.0195312 0.0078125 0
0.0234375 0.0078125 0
0.0273438 0.0078125 0
0.03125 0.0078125 0
0.0351562 0.0078125 0
0.0390625 0.0078125 0
0.0429688 0.0078125 0
0.046875 0.0078125 0
0.0507812 0.0078125 0
0.0546875 0.0078125 0
0.0585938 0.0078125 0
0.0625 0.0078125 0
0.0664062 0.0078125 0
0.0703125 0.0078125 0
0.0742188 0.0078125 0
0.078125 0.0078125 0
0.0820312 0.0078125 0
0.0859375 0.0078125 0
0.0898438 0.0078125 0
0.09375 0.0078125 0
0.0976562 0.0078125 0
0.101562 0.0078125 0
0.105469 0.0078125 0
0.109375 0.0078125 0
0.113281 0.0078125 0
0.117188 0.0078125 0
0.121094 0.0078125 0
0.125 0.0078125 0
0.128906 0.0078125 0
0.132812 0.0078125 0
0.136719 0.0078125 0
0.140625 0.0078125 0
0.144531 0.0078125 0
0.148438 0.0078125 0
0.152344 0.0078125 0
0.15625 0.0078125 0
0.160156 0.0078125 0
0.164062 0.0078125 0
0.167969 0.0078125 0
0.171875 0.0078125 0
0.175781 0.0078125 0
0.179688 0.0078125 0
0.183594 0.0078125 0
0.1875 0.0078125 0
0.191406 0.0078125 0
0.195312 0.0078125 0
0.199219 0.0078125 0
0.203125 0.0078125 0
0.207031 0.0078125 0
0.210938 0.0078125 0
0.214844 0.0078125 0
0.21875 0.0078125 0
0.222656 0.0078125 0
0.226562 0.0078125 0
0.230469 0.0078125 0
0.234375 0.0078125 0
0.238281 0.0078125 0
0.242188 0.0078125 0
0.246094 0.0078125 0
0.25 0.0078125 0
0 0.0117188 0
0.00390625 0.0117188 0
0.0078125 0.0117188 0
0.0117188 0.0117188 0
0.015625 0.0117188 0
0.0195312 0.0117188 0
0.0234375 0.0117188 0
0.0273438 0.0117188 0
0.03125 0.0117188 0
0.0351562 0.0117188 0
0.0390625 0.0117188 0
0.0429688 0.0117188 0
0.046875 0.0117188 0
0.0507812 0.0117188 0
0.0546875 0.0117188 0
0.0585938 0.0117188 0
0.0625 0.0117188 0
0.0664062 0.0117188 0
0.0703125 0.0117188 0
0.0742188 0.0117188 0
0.078125 0.0117188 0
0.0820312 0.0117188 0
0.0859375 0.0117188 0
0.0898438 0.0117188 0
0.09375 0.0117188 0
0.0976562 0.0117188 0
0.101562 0.0117188 0
0.105469 0.0117188 0
0.109375 0.0117188 0
0.113281 0.0117188 0
0.117188 0.0117188 0
0.121094 0.0117188 0
0.125 0.0117188 0
0.128906 0.0117188 0
0.132812 0.0117188 0
0.136719 0.0117188 0
0.140625 0.0117188 0
0.144531 0.0117188 0
0.148438 0.0117188 0
0.152344 0.0117188 0
0.15625 0.0117188 0
0.160156 0.0117188 0
0.164062 0.0117188 0
0.167969 0.0117188 0
0.171875 0.0117188 0
0.175781 0.0117188 0
0.179688 0.0117188 0
0.183594 0.0117188 0
0.1875 0.0117188 0
0.191406 0.0117188 0
0.195312 0.0117188 0
0.199219 0.0117188 0
0.203125 0.0117188 0
0.207031 0.0117188 0
0.210938 0.0117188 0
0.214844 0.0117188 0
0.21875 0.0117188 0
0.222656 0.0117188 0
0.226562 0.0117188 0
0.230469 0.0117188 0
0.234375 0.0117188 0
0.238281 0.0117188 0
0.242188 0.0117188 0
0.246094 0.0117188 0
0.25 0.0117188 0
0 0.015625 0
0.00390625 0.015625 0
0.0078125 0.015625 0
0.0117188 0.015625 0
0.015625 0.015625 0
0.0195312 0.015625 0
0.0234375 0.015625 0
0.0273438 0.015625 0
0.03125 0.015625 0
0.0351562 0.015625 0
0.0390625 0.015625 0
0.0429688 0.015625 0
0.046875 0.015625 0
0.0507812 0.015625 0
0.0546875 0.015625 0
0.0585938 0.015625 0
0.0625 0.015625 0
0.0664062 0.015625 0
0.0703125 0.015625 0
0.0742188 0.015625 0
0.078125 0.015625 0
0.0820312 0.015625 0
0.0859375 0.015625 0
0.0898438 0.015625 0
0.09375 0.015625 0
0.0976562 0.015625 0
0.101562 0.015625 0
0.105469 0.015625 0
0.109375 0.015625 0
0.113281 0.015625 0
0.117188 0.015625 0
0.121094 0.015625 0
0.125 0.015625 0
0.128906 0.015625 0
0.132812 0.015625 0
0.136719 0.015625 0
0.140625 0.015625 0
0.144531 0.015625 0
0.148438 0.015625 0
0.152344 0.015625 0
0.15625 0.015625 0
0.160156 0.015625 0
0.164062 0.015625 0
0.167969 0.015625 0
0.171875 0.015625 0
0.175781 0.015625 0
0.179688 0.015625 0
0.183594 0.015625 0
0.1875 0.015625 0
0.191406 0.015625 0
0.195312 0.015625 0
0.199219 0.015625 0
0.203125 0.015625 0
0.207031 0.015625 0
0.210938 0.015625 0
0.214844 0.015625 0
0.21875 0.015625 0
0.222656 0.015625 0
0.226562 0.015625 0
0.230469 0.015625 0
0.234375 0.015625 0
0.238281 0.015625 0
0.242188 0.015625 0
0.246094 0.015625 0
0.25 0.015625 0
0 0.0195312 0
0.00390625 0.0195312 0
0.0078125 0.0195312 0
0.0117188 0.0195312 0
0.015625 0.0195312 0
0.0195312 0.0195312 0
0.0234375 0.0195312 0
0.0273438 0.0195312 0
0.03125 0.0195312 0
0.0351562 0.0195312 0
0.0390625 0.0195312 0
0.0429688 0.0195312 0
0.046875 0.0195312 0
0.0507812 0.0195312 0
0.0546875 0.0195312 0
0.0585938 0.0195312 0
0.0625 0.0195312 0
0.0664062 0.0195312 0
0.0703125 0.0195312 0
0.0742188 0.0195312 0
0.078125 0.0195312 0
0.0820312 0.0195312 0
0.0859375 0.0195312 0
0.0898438 0.0195312 0
0.09375 0.0195312 0
0.0976562 0.0195312 0
0.101562 0.0195312 0
0.105469 0.0195312 0
0.109375 0.0195312 0
0.113281 0.0195312 0
0.117188 0.0195312 0
0.121094 0.0195312 0
0.125 0.0195312 0
0.128906 0.0195312 0
0.132812 0.0195312 0
0.136719 0.0195312 0
0.140625 0.0195312 0
0.144531 0.0195312 0
0.148438 0.0195312 0
0.152344 0.0195312 0
0.15625 0.0195312 0
0.160156 0.0195312 0
0.164062 0.0195312 0
0.167969 0.0195312 0
0.171875 0.0195312 0
0.175781 0.0195312 0
0.179688 0.0195312 0
0.183594 0.0195312 0
0.1875 0.0195312 0
0.191406 0.0195312 0
0.195312 0.0195312 0
0.199219 0.0195312 0
0.203125 0.0195312 0
0.207031 0.0195312 0
0.210938 0.0195312 0
0.214844 0.0195312 0
0.21875 0.0195312 0
0.222656 0.0195312 0
0.226562 0.0195312 0
0.230469 0.0195312 0
0.234375 0.0195312 0
0.238281 0.0195312 0
0.242188 0.0195312 0
0.246094 0.0195312 0
0.25 0.0195312 0
0 0.0234375 0
0.00390625 0.0234375 0
0.0078125 0.0234375 0
0.0117188 0.0234375 0
0.015625 0.0234375 0
0.0195312 0.0234375 0
0.0234375 0.0234375 0
0.0273438 0.0234375 0
0.03125 0.0234375 0
0.0351562 0.0234375 0
0.0390625 0.0234375 0
0.0429688 0.0234375 0
0.046875 0.0234375 0
0.0507812 0.0234375 0
0.0546875 0.0234375 0
0.0585938 0.0234375 0
0.0625 0.0234375 0
0.0664062 0.0234375 0
0.0703125 0.0234375 0
0.0742188 0.0234375 0
0.078125 0.0234375 0
0.0820312 0.0234375 0
0.0859375 0.0234375 0
0.0898438 0.0234375 0
0.09375 0.0234375 0
0.0976562 0.0234375 0
0.101562 0.0234375 0
0.105469 0.0234375 0
0.109375 0.0234375 0
0.113281 0.0234375 0
0.117188 0.0234375 0
0.121094 0.0234375 0
0.125 0.0234375 0
0.128906 0.0234375 0
0.132812 0.0234375 0
0.136719 0.0234375 0
0.140625 0.0234375 0
0.144531 0.0234375 0
0.148438 0.0234375 0
0.152344 0.0234375 0
0.15625 0.0234375 0
0.160156 0.0234375 0
0.164062 0.0234375 0
0.167969 0.0234375 0
0.171875 0.0234375 0
0.175781 0.0234375 0
0.179688 0.0234375 0
0.183594 0.0234375 0
0.1875 0.0234375 0
0.191406 0.0234375 0
0.195312 0.0234375 0
0.199219 0.0234375 0
0.203125 0.0234375 0
0.207031 0.0234375 0
0.210938 0.0234375 0
0.214844 0.0234375 0
0.21875 0.0234375 0
0.222656 0.0234375 0
0.226562 0.0234375 0
0.230469 0.0234375 0
0.234375 0.0234375 0
0.238281 0.0234375 0
0.242188 0.0234375 0
0.246094 0.0234375 0
0.25 0.0234375 0
0 0.0273438 0
0.00390625 0.0273438 0
0.0078125 0.0273438 0
0.0117188 0.0273438 0
0.015625 0.0273438 0
0.0195312 0.0273438 0
0.0234375 0.0273438 0
0.0273438 0.0273438 0
0.03125 0.0273438 0
0.0351562 0.0273438 0
0.0390625 0.0273438 0
0.0429688 0.0273438 0
0.046875 0.0273438 0
0.0507812 0.0273438 0
0.0546875 0.0273438 0
0.0585938 0.0273438 0
0.0625 0.0273438 0
0.0664062 0.0273438 0
0.0703125 0.0273438 0
0.0742188 0.0273438 0
0.078125 0.0273438 0
0.0820312 0.0273438 0
0.0859375 0.0273438 0
0.0898438 0.0273438 0
0.09375 0.0273438 0
0.0976562 0.0273438 0
0.101562 0.0273438 0
0.105469 0.0273438 0
0.109375 0.0273438 0
0.113281 0.0273438 0
0.117188 0.0273438 0
0.121094 0.0273438 0
0.125 0.0273438 0
0.128906 0.0273438 0
0.132812 0.0273438 0
0.136719 0.0273438 0
0.140625 0.0273438 0
0.144531 0.0273438 0
0.148438 0.0273438 0
[...]
CELL_DATA 16384
SCALARS solution double
LOOKUP_TABLE default
2.09618
2.09625
2.09624
2.09598
2.0957
2.09528
2.09468
2.0938
2.09285
2.09184
2.09125
2.09124
2.09103
2.09032
2.08948
2.08926
2.08911
2.08909
2.08901
2.08941
2.08938
2.08843
2.08766
2.08703
2.08633
2.08796
2.09001
2.08964
2.09016
2.09214
2.09332
2.09359
2.09329
2.09229
2.09062
2.08977
2.08965
2.08962
2.08868
2.08787
2.08769
2.08751
2.0879
2.08833
2.08855
2.08842
2.0878
2.08773
2.08821
2.08886
2.09013
2.0909
2.09133
2.09193
2.09281
2.09343
2.09381
2.09401
2.09428
2.09483
2.09514
2.09546
2.09555
2.09597
1.98595
1.98615
1.98614
1.98625
1.98631
1.98622
1.98589
1.98557
1.98533
1.98521
1.9859
1.98748
1.98904
1.99044
1.99138
1.99297
1.9955
1.99927
2.0035
2.01115
2.01857
2.02486
2.03018
2.03657
2.04739
2.05763
2.06551
2.07303
2.0859
2.09539
2.09758
2.09724
2.09605
2.09335
2.09063
2.0848
2.07684
2.06796
2.05815
2.04812
2.03943
2.0309
2.02318
2.01646
2.00778
2.00112
1.99611
1.99149
1.9896
1.98901
1.98893
1.98739
1.98584
1.9855
1.98528
1.98537
1.98437
1.98402
1.98425
1.98452
1.98477
1.98489
1.98535
1.98548
1.88544
1.88555
1.88581
1.88597
1.88616
1.88649
1.88683
1.88737
1.88795
1.889
1.89048
1.89178
1.89382
1.89632
1.89907
1.90223
1.90564
1.91247
1.92084
1.93214
1.94653
1.95886
1.97029
1.98335
1.99609
2.00674
2.01971
2.03883
2.06298
2.08391
2.09441
2.09434
2.0931
2.08755
2.07544
2.06229
2.04856
2.02924
2.01253
1.99974
1.98721
1.97173
1.9578
1.94448
1.92853
1.91732
1.90942
1.90243
1.89767
1.89569
1.8946
1.89146
1.88854
1.88723
1.88677
1.88672
1.88536
1.88464
1.88464
1.88445
1.88438
1.88472
1.88511
1.88536
1.87748
1.87773
1.87781
1.87774
1.87754
1.8772
1.87697
1.87706
1.87753
1.88049
1.887
1.89316
1.89736
1.90086
1.90517
1.91036
1.9158
1.92265
1.93015
1.93806
1.94919
1.96034
1.97144
1.98269
1.99211
1.9994
2.00805
2.02501
2.04905
2.0741
2.09031
2.09193
2.091
2.085
2.06429
2.04665
2.03449
2.01892
2.00666
1.9964
1.98573
1.97296
1.96102
1.95013
1.93724
1.92806
1.91962
1.91285
1.90744
1.90237
1.89804
1.89448
1.8914
1.88954
1.88657
1.88288
1.8791
1.87636
1.8756
1.87542
1.87556
1.87605
1.87655
1.87702
1.86567
1.86604
1.86623
1.86646
1.86652
1.86646
1.8665
1.86668
1.86758
1.87248
1.88139
1.88982
1.89601
1.90101
1.907
1.91305
1.91996
1.92758
1.9353
1.94339
1.95263
1.96273
1.9727
1.98446
1.99706
2.00919
2.02206
2.04209
2.06579
2.08602
2.09878
2.09997
2.10075
2.10002
2.08124
2.06192
2.04755
2.02905
2.01496
2.00091
1.98728
1.97446
1.96326
1.95391
1.94384
1.93544
1.92644
1.91798
1.91141
1.90465
1.89779
1.89192
1.88724
1.88405
1.87921
1.87467
1.8704
1.86634
1.8647
1.86429
1.86418
1.86436
1.86467
1.86507
1.85409
1.85448
1.85493
1.8556
1.85628
1.85688
1.85748
1.85869
1.86239
1.86928
1.87666
1.88334
1.8888
1.89395
1.90064
1.90788
1.9167
1.92587
1.93524
1.94488
1.95452
1.96528
1.97564
1.98913
2.00356
2.01805
2.03378
2.05553
2.07899
2.09705
2.10973
2.11216
2.11338
2.11348
2.09564
2.07443
2.05851
2.03807
2.02249
2.00684
1.99153
1.97809
1.96551
1.95488
1.94415
1.93425
1.9246
1.91532
1.9076
1.90055
1.8934
1.88646
1.88063
1.876
1.87162
1.8675
1.86342
1.8589
1.85588
1.85452
1.85399
1.85379
1.85377
1.85377
1.84573
1.84593
1.8462
1.84659
1.84707
1.84759
1.84819
1.84996
1.85652
1.86483
1.87208
1.87831
1.8835
1.88936
1.8969
1.90494
1.91472
1.92457
1.93499
1.94589
1.95658
1.96927
1.98181
1.99631
2.00994
2.02561
2.04294
2.06484
2.0874
2.1047
2.11938
2.12292
2.1237
2.12262
2.10453
2.08224
2.06611
2.04555
2.02939
2.01352
1.9975
1.98333
1.96933
1.95708
1.94508
1.93357
1.92356
1.91382
1.90531
1.89743
1.88972
1.88301
1.87669
1.87082
1.86579
1.86109
1.85643
1.85187
1.84814
1.8464
1.84592
1.84578
1.84574
1.84565
1.83827
1.83822
1.8382
1.83822
1.83843
1.83878
1.83956
1.84287
1.85095
1.8591
1.86629
1.87283
1.87909
1.88682
1.89569
1.90421
1.91433
1.92412
1.9349
1.94717
1.95938
1.97387
1.98851
2.00433
2.0186
2.03655
2.05574
2.07499
2.09516
2.1131
2.12968
2.13388
2.13351
2.13043
2.11256
2.09059
2.07533
2.05553
2.03852
2.02178
2.00423
1.98873
1.97423
1.96099
1.94795
1.9356
1.92494
1.91438
1.90473
1.89575
1.88729
1.87958
1.87202
1.86505
1.85927
1.85431
1.84969
1.84524
1.84134
1.83915
1.83861
1.83859
1.83855
1.83841
1.83167
1.83148
1.83123
1.83098
1.83087
1.83096
1.83155
1.8368
1.84556
1.85369
1.86101
1.86822
1.87555
1.88491
1.8945
1.90403
1.91475
1.92496
1.93595
1.94917
1.96242
1.9786
1.99423
2.01078
2.02653
2.04619
2.06617
2.08346
2.10246
2.12159
2.13897
2.14271
2.14137
2.13772
2.1211
2.09967
2.08405
2.0652
2.04688
2.0294
2.01101
1.99411
1.97878
1.96508
1.95162
1.93864
1.92693
1.91485
1.90401
1.89411
1.88479
1.87639
1.8681
1.86057
1.85426
1.84898
1.84416
1.83958
1.83538
1.8327
1.83202
1.83208
1.83209
1.83191
1.82599
1.82586
1.82571
1.82556
1.82558
1.82582
1.8275
1.83456
1.84283
1.85031
1.85731
1.86492
1.87306
1.88356
1.89355
1.90413
1.91612
1.9274
1.93953
1.95317
1.96741
1.9842
1.99977
2.01661
2.03328
2.05398
2.07476
2.09268
2.11184
2.13083
2.14656
2.14938
2.14811
2.14509
2.13189
2.10919
2.09139
2.073
2.05452
2.0369
2.01813
2.00023
1.98384
1.96925
1.955
1.94129
1.92858
1.91542
1.90376
1.89297
1.8829
1.87385
1.8652
1.85749
1.85092
1.8453
1.8402
1.83542
1.83099
1.82768
1.82637
1.82631
1.82629
1.82615
1.82112
1.82118
1.82122
1.82135
1.82172
1.82234
1.82582
1.83417
1.84231
1.84914
1.8557
1.86329
1.87178
1.88244
1.8927
1.90442
1.91747
1.93012
1.94403
1.95878
1.97385
1.9901
2.00522
2.02261
2.04077
2.06241
2.08415
2.10359
2.12264
2.1397
2.15206
2.15355
2.15334
2.152
2.1435
2.11932
2.09987
2.08076
2.06157
2.04417
2.0255
2.00692
1.98962
1.97367
1.95799
1.9432
1.92964
1.91605
1.90405
1.89276
1.8822
1.87262
1.86376
1.85596
1.8491
1.84307
1.83754
1.83238
1.82767
1.82375
1.82172
1.82134
1.82121
1.82108
1.81649
1.8168
1.81711
1.8176
1.81835
1.81954
1.82512
1.83401
1.84211
1.84886
1.85558
1.86344
1.87233
1.88269
1.89299
1.90549
1.91908
1.93291
1.94837
1.96407
1.97979
1.99595
2.01109
2.02897
2.04847
2.07077
2.09279
2.11352
2.13242
2.14803
2.15809
2.15836
2.15857
2.15851
2.15345
2.1292
2.10865
2.08857
2.06859
2.05098
2.03234
2.01364
1.99565
1.97861
1.96143
1.94568
1.93113
1.91713
1.90496
1.89348
1.88283
1.87283
1.86365
1.85545
1.84789
1.84103
1.83482
1.82926
1.82423
1.81985
1.81722
1.81645
1.81631
1.81631
1.81238
1.81286
1.81333
1.81391
1.81458
1.81597
1.82287
1.83229
1.84041
1.84748
1.85487
1.86342
1.8729
1.88359
1.89433
1.90734
1.92107
1.93515
1.95082
1.96693
1.98341
2.00057
2.01749
2.03676
2.05771
2.07974
2.10134
2.12194
2.14043
2.15612
2.16614
2.16656
2.16606
2.16473
2.16098
2.13772
2.11646
2.0969
2.07686
2.05829
2.03881
2.01963
2.00113
1.98345
1.96546
1.94889
1.93354
1.91927
1.90657
1.89452
1.88347
1.8729
1.86321
1.85446
1.84609
1.83842
1.8316
1.82575
1.82053
1.8159
1.81282
1.81186
1.81187
1.81197
1.80897
1.80947
1.80989
1.81026
1.81078
1.81258
1.82032
1.82939
1.83732
1.84467
1.85293
1.86255
1.87289
1.88432
1.89599
1.90967
1.92341
1.93755
1.95308
1.96882
1.9858
2.00437
2.0237
2.04483
2.0672
2.08875
2.10872
2.12834
2.14681
2.16352
2.17526
2.17659
2.17492
2.17124
2.16631
2.14465
2.12426
2.10588
2.08556
2.06585
2.04501
2.02479
2.00567
1.9879
1.9701
1.95349
1.93739
1.92229
1.90847
1.89525
1.88326
1.87215
1.86182
1.85273
1.84406
1.83597
1.82871
1.8225
1.81711
1.81227
1.80892
1.80789
1.80798
1.80843
1.80593
1.80621
1.8064
1.80669
1.80739
1.80987
1.81834
1.82691
1.8344
1.84187
1.85083
1.86132
1.87248
1.88476
1.89735
1.91182
1.92588
1.94046
1.9562
1.97192
1.9889
2.00877
2.02993
2.05249
2.07558
2.09647
2.11533
2.13392
2.1527
2.17041
2.18382
2.18615
2.1836
2.17862
2.17222
2.15141
2.13218
2.11455
2.09397
2.07342
2.05156
2.03031
2.0107
1.99277
1.97502
1.95816
1.94131
1.92523
1.91039
1.89613
1.88324
1.87161
1.8607
1.85112
1.84225
1.8341
1.82671
1.82028
1.8147
1.80974
1.80615
1.80489
1.80508
1.80554
1.8031
1.80313
1.80328
1.80372
1.80472
1.8083
1.81725
1.82559
1.83276
1.84035
1.8498
1.86052
1.87206
1.8848
1.89814
1.91329
1.92805
1.94371
1.96028
1.97708
1.99444
2.01495
2.03639
2.05863
2.08147
2.10203
2.12126
2.14046
2.15982
2.1776
2.19096
2.19348
2.19171
2.18715
2.18
2.15887
2.13955
2.12184
2.10088
2.08014
2.05828
2.03673
2.01684
1.99831
1.97984
1.96215
1.94476
1.92782
1.91251
1.89785
1.88433
1.8722
1.86091
1.85074
1.84147
1.83313
1.82555
1.81901
1.81332
1.80825
1.8044
1.80289
1.80287
1.803
1.8005
1.80042
1.80054
1.80103
1.80221
1.80736
1.81675
1.82507
1.83234
1.84037
1.8502
1.8608
1.87229
1.88506
1.89893
1.91439
1.9299
1.9469
1.96463
1.98279
2.00121
2.02245
2.04314
2.06363
2.08575
2.10671
2.12704
2.14842
2.16841
2.18503
2.19707
2.19915
2.19863
2.19586
2.18912
2.16727
2.14679
2.12758
2.1063
2.08605
2.06503
2.04393
2.02366
2.00407
1.98429
1.96547
1.94751
1.93019
1.91491
1.90043
1.88653
1.87388
1.86193
1.85106
1.84122
1.83244
1.82468
1.81814
1.81242
1.80732
1.80329
1.80143
1.80097
1.80066
1.79821
1.79808
1.79817
1.79869
1.80007
1.80608
1.81599
1.82449
1.83216
1.84092
1.8512
1.86208
1.87377
1.88664
1.90064
1.91608
1.93199
1.94993
1.96867
1.98779
2.00709
2.0288
2.04919
2.06874
2.09018
2.11166
2.13306
2.15609
2.17677
2.1922
2.20289
2.20465
2.20458
2.2036
2.19804
2.17582
2.15422
2.13342
2.11151
2.09139
2.07102
2.05024
2.02952
2.00896
1.98807
1.96856
1.9502
1.93295
1.91744
1.90288
1.88867
1.87531
1.86262
1.85103
1.8406
1.83155
1.82364
1.81696
1.81113
1.8059
1.80166
1.79954
1.79896
1.79852
1.79612
1.79605
1.79614
1.79673
1.7981
1.80452
1.81473
1.82315
1.83128
1.84081
1.85172
1.86322
1.87565
1.88915
1.90355
1.91914
1.93525
1.95339
1.9721
1.99139
2.01076
2.0333
2.0544
2.07425
2.0961
2.11822
2.13965
2.16259
2.18305
2.19835
2.20891
2.21056
2.21065
2.21032
2.2053
2.18332
2.16156
2.14028
2.11777
2.09695
2.07602
2.05477
2.03377
2.01282
1.99163
1.97202
1.95338
1.93572
1.91937
1.90403
1.88931
1.8754
1.86231
1.85043
1.83972
1.83036
1.8222
1.81529
1.80926
1.80388
1.79952
1.79726
1.79671
1.7964
1.79477
1.79497
1.79521
1.7958
1.79709
1.80369
1.81369
1.82175
1.82999
1.84001
1.85143
1.86347
1.87673
1.89124
1.90665
1.92295
1.93966
1.95754
1.97545
1.9942
2.01359
2.0367
2.0589
2.08054
2.10399
2.12654
2.14694
2.16806
2.18739
2.20323
2.215
2.21727
2.21702
2.21562
2.21058
2.18953
2.16885
2.14831
2.12568
2.10336
2.0807
2.05847
2.03713
2.01637
1.99563
1.97607
1.95682
1.93821
1.9207
1.90446
1.88914
1.87495
1.86183
1.84997
1.83917
1.82961
1.82121
1.81399
1.80774
1.80206
1.79761
1.79531
1.79476
1.79475
1.79383
1.79435
1.7948
1.79532
1.79681
1.80385
1.81351
1.82114
1.82936
1.83959
1.85119
1.86347
1.87728
1.89245
1.90876
1.92581
1.94355
1.96158
1.9794
1.99809
2.0178
2.04141
2.06448
2.08746
2.11237
2.13534
2.15468
2.17383
2.19162
2.20774
2.22057
2.2234
2.22297
2.22082
2.21528
2.19501
2.17536
2.15622
2.134
2.11069
2.08659
2.06325
2.04139
2.02069
2.00002
1.98009
1.96004
1.94076
1.9223
1.9053
1.88954
1.87523
1.86211
1.85034
1.83945
1.82952
1.8207
1.81316
1.8067
1.80061
1.79582
1.79351
1.79305
1.79335
1.79268
1.79341
1.79409
1.79472
1.79645
1.804
1.81364
1.82127
1.8297
1.84014
1.85182
1.8643
1.87831
1.89345
1.90982
1.92734
1.9458
1.96481
1.98374
2.00369
2.02453
2.04846
2.07142
2.09458
2.11957
2.14259
2.16192
2.18068
2.19778
2.21328
2.22557
2.228
2.22789
2.22569
2.22029
2.20048
2.18128
2.16271
2.14096
2.11776
2.09374
2.07005
2.0475
2.02584
2.00425
1.98349
1.96292
1.94339
1.9245
1.90719
1.89145
1.87715
1.86378
1.85159
1.84024
1.82991
1.82064
1.81266
1.80583
1.79948
1.79442
1.79196
1.79159
1.79204
1.79131
1.79185
1.79246
1.79323
1.79522
1.80344
1.81332
1.82122
1.83009
1.84094
1.85289
1.86563
1.87966
1.89454
1.9107
1.92818
1.94679
1.96658
1.98723
2.00929
2.03175
2.05597
2.07845
2.10076
2.12479
2.14795
2.1682
2.18829
2.20561
2.21994
2.23018
2.23118
2.23114
2.23015
2.22605
2.20645
2.18664
2.16735
2.14589
2.12385
2.10071
2.07726
2.0539
2.03114
2.00844
1.98685
1.96596
1.94644
1.92752
1.91022
1.89421
1.87931
1.86541
1.85263
1.84078
1.83007
1.82049
1.81218
1.80507
1.79861
1.79344
1.79097
1.79058
1.79085
1.79012
1.79033
1.7907
1.79146
1.79377
1.8027
1.81275
1.8209
1.83019
1.8414
1.85355
1.86648
1.88061
1.89563
1.91188
1.92952
1.94824
1.96819
1.99007
2.01345
2.03719
2.06189
2.08404
2.10592
2.12901
2.15213
2.17327
2.19497
2.21271
2.22619
2.23468
2.23446
2.23455
2.23459
2.23166
2.21171
2.19151
2.17164
2.15043
2.12894
2.10622
2.08312
2.05952
2.03599
2.01262
1.99085
1.96966
1.9501
1.93081
1.9132
1.89671
1.88117
1.86661
1.8532
1.84094
1.82996
1.82013
1.81165
1.80458
1.79831
1.79324
1.79068
1.79006
1.79001
1.78981
1.78961
1.78959
1.79034
1.79298
1.80234
1.81241
1.82071
1.83024
1.84156
1.85375
1.86687
1.8813
1.89685
1.91368
1.93194
1.95106
1.97125
1.99358
2.01637
2.04008
2.06477
2.08758
2.11047
2.13364
2.1568
2.17794
2.19948
2.21737
2.23099
2.2395
2.2395
2.23935
2.23869
2.23611
2.21628
2.19648
2.17681
2.15533
2.13349
2.11023
2.08699
2.0634
2.04009
2.01692
1.99518
1.97348
1.95357
1.93366
1.91541
1.89845
1.88258
1.86755
1.85377
1.8413
1.83022
1.82042
1.81198
1.8051
1.79897
1.79388
1.79109
1.79024
1.79
1.7899
1.78964
1.78961
1.79016
1.79292
1.80271
1.81255
1.82088
1.83054
1.84189
1.85407
1.86748
1.88227
1.89835
1.91591
1.93487
1.95458
1.97513
1.99713
2.01876
2.04171
2.06624
2.08975
2.11461
2.139
2.16212
2.1823
2.2026
2.22011
2.23479
2.24488
2.24556
2.24485
2.24298
2.23917
2.22021
2.20189
2.18286
2.16089
2.13796
2.11339
2.08973
2.06631
2.04373
2.02102
1.99915
1.97683
1.95616
1.93579
1.91713
1.89989
1.88386
1.86865
1.85478
1.84234
1.8313
1.82155
1.813
1.80603
1.79987
1.7946
1.79159
1.79057
1.79016
1.78956
1.78952
1.78968
1.79014
1.79317
1.8034
1.81286
1.82113
1.83097
1.8424
1.8547
1.86839
1.88353
1.90007
1.9182
1.93766
1.95768
1.97837
1.99988
2.02121
2.04398
2.06822
2.09222
2.11827
2.14353
2.1667
2.1864
2.20569
2.22294
2.23856
2.25001
2.25114
2.24959
2.24677
2.24302
2.22452
2.20736
2.18872
2.16587
2.14225
2.11664
2.09276
2.0696
2.04715
2.02423
2.002
1.97925
1.95809
1.93771
1.91885
1.90142
1.88519
1.8698
1.8558
1.84313
1.83189
1.82193
1.81313
1.80585
1.7995
1.79408
1.79095
1.78997
1.78974
1.78882
1.7891
1.78956
1.79018
1.79386
1.80394
1.81318
1.82131
1.83135
1.84289
1.85542
1.8695
1.88502
1.90186
1.92018
1.93962
1.95958
1.98052
2.00217
2.02385
2.04734
2.07174
2.09555
2.12156
2.14636
2.16985
2.19011
2.20966
2.22728
2.24274
2.25394
2.25501
2.25358
2.25099
2.24778
2.22907
2.21208
2.19304
2.16978
2.14618
2.12068
2.09712
2.07333
2.05002
2.0263
2.0039
1.98142
1.96031
1.93992
1.92064
1.9028
1.88608
1.87031
1.85601
1.84314
1.83174
1.8216
1.81262
1.80513
1.79853
1.79289
1.78969
1.78884
1.78876
1.78808
1.78856
1.78912
1.78978
1.79419
1.8041
1.81312
1.82121
1.83155
1.84342
1.85636
1.87088
1.8867
1.90367
1.92182
1.94092
1.96092
1.98215
2.00445
2.02701
2.05158
2.07616
2.10014
2.12494
2.14884
2.17253
2.19384
2.21465
2.23245
2.2471
2.2569
2.25758
2.25727
2.2559
2.2528
2.23348
2.21532
2.19535
2.17246
2.15004
2.12528
2.10165
2.07705
2.05256
2.02807
2.00576
1.98365
1.9627
1.94207
1.92221
1.9038
1.88661
1.87049
1.85605
1.84302
1.8315
1.8212
1.81201
1.80431
1.79752
1.79167
1.78844
1.78767
1.78776
1.78768
1.78807
1.7886
1.78927
1.79389
1.80367
1.81264
1.82086
1.8315
1.8437
1.85714
1.87214
1.88825
1.90539
1.92359
1.94264
1.96266
1.98407
2.00693
2.03051
2.05586
2.08063
2.10481
2.12895
2.15219
2.17592
2.19807
2.21956
2.2368
2.25065
2.25952
2.26041
2.26077
2.26049
2.2577
2.23699
2.2174
2.19713
2.17482
2.15379
2.12959
2.10556
2.08017
2.05525
2.03045
2.00787
1.98564
1.96452
1.94367
1.92343
1.90459
1.88711
1.87075
1.8561
1.84301
1.83149
1.82121
1.812
1.80417
1.79723
1.79123
1.78792
1.78713
1.78727
1.78803
1.7884
1.78873
1.78911
1.79375
1.8035
1.81244
1.82076
1.83151
1.8438
1.85741
1.87271
1.88911
1.90675
1.9254
1.94485
1.96513
1.9868
2.00965
2.03361
2.05938
2.08428
2.10903
2.13333
2.15654
2.18029
2.20207
2.22308
2.23966
2.25326
2.26218
2.26369
2.26425
2.26414
2.26094
2.23916
2.21939
2.1996
2.17767
2.15702
2.13288
2.10878
2.08311
2.05823
2.03332
2.01019
1.98741
1.96571
1.94464
1.92431
1.9054
1.88797
1.87174
1.85728
1.84441
1.83298
1.82263
1.81324
1.80524
1.79814
1.79202
1.78858
1.78768
1.78768
1.78865
1.78907
1.78938
1.78964
1.79446
1.80421
1.81314
1.8215
1.83215
1.84423
1.8576
1.87272
1.88909
1.9072
1.92663
1.94698
1.96775
1.98982
2.01288
2.03659
2.06189
2.08678
2.11222
2.13732
2.16093
2.18452
2.20525
2.22518
2.24152
2.25566
2.26521
2.26685
2.267
2.26598
2.26247
2.24124
2.22241
2.20329
2.18093
2.15975
2.13522
2.11142
2.08598
2.06125
2.03613
2.01242
1.98898
1.96662
1.94527
1.92503
1.9066
1.88979
1.874
1.8597
1.8468
1.83508
1.82433
1.81462
1.80638
1.79914
1.79296
1.78944
1.78845
1.78838
1.78865
1.7891
1.78948
1.78988
1.79504
1.80505
1.81431
1.82295
1.83375
1.84577
1.8589
1.87344
1.88927
1.90715
1.92678
1.94789
1.96967
1.99253
2.01591
2.03938
2.06423
2.08867
2.11425
2.14004
2.16451
2.18792
2.20782
2.22704
2.24358
2.25829
2.26832
2.26942
2.2683
2.26608
2.26352
2.24378
2.22639
2.20762
2.18438
2.16242
2.13732
2.11345
2.08812
2.06382
2.03849
2.01414
1.99032
1.96752
1.94615
1.92635
1.90842
1.89188
1.87618
1.86163
1.8483
1.83607
1.82486
1.81484
1.80647
1.79926
1.79322
1.78978
1.78872
1.78858
1.78836
1.78864
1.78903
1.78948
1.79472
1.80502
1.8148
1.82409
1.83531
1.84767
1.86097
1.8754
1.89088
1.90806
1.92698
1.94772
1.96967
1.9934
2.01755
2.04168
2.0666
2.09079
2.11619
2.14195
2.16689
2.19067
2.21065
2.22991
2.24626
2.26077
2.27051
2.27107
2.26894
2.26653
2.26441
2.24596
2.22993
2.21161
2.18764
2.16505
2.1394
2.11518
2.0896
2.06545
2.04007
2.01547
1.99155
1.96912
1.94796
1.92822
1.91013
1.89309
1.87676
1.86163
1.84781
1.83528
1.82409
1.81424
1.80607
1.799
1.79313
1.7898
1.78865
1.78842
1.78821
1.78832
1.78861
1.78908
1.79434
1.80466
1.81455
1.82398
1.83552
1.84838
1.86224
1.87728
1.89309
1.9102
1.92867
1.94852
1.96954
1.9928
2.0171
2.04245
2.0686
2.09355
2.11885
2.14395
2.16863
2.19297
2.21379
2.23365
2.24961
2.263
2.27141
2.27163
2.26974
2.26782
2.26601
2.24764
2.23189
2.21406
2.19037
2.16779
2.14181
2.11713
2.09097
2.0666
2.04129
2.01684
1.9935
1.97133
1.95
1.92975
1.9109
1.89311
1.87626
1.86071
1.84674
1.8343
1.82333
1.81374
1.80578
1.79882
1.79307
1.78982
1.78865
1.78836
1.78861
1.78873
1.78895
1.78924
1.79428
1.80446
1.81421
1.82344
1.83475
1.84764
1.86187
1.8776
1.89431
1.91218
1.9308
1.95038
1.97079
1.99298
2.01678
2.04221
2.0694
2.09563
2.12156
2.14647
2.17078
2.19495
2.21643
2.23706
2.25274
2.26493
2.27181
2.27173
2.27111
2.26986
2.2678
2.24862
2.23232
2.21445
2.19183
2.17058
2.14467
2.11949
2.09257
2.06775
2.0428
2.01892
1.99578
1.97343
1.95155
1.93055
1.91099
1.89265
1.87556
1.85993
1.84599
1.83382
1.82313
1.81377
1.80596
1.79899
1.79318
1.79001
1.78892
1.78872
1.78935
1.78954
1.78982
1.79014
1.79489
1.80483
1.81437
1.82342
1.83438
1.8469
1.86087
1.87671
1.89407
1.91278
1.93232
1.95228
1.97307
1.99523
2.01866
2.04309
2.06987
2.09651
2.12317
2.14862
2.17308
2.19709
2.21834
2.23914
2.25474
2.26638
2.27261
2.27237
2.27241
2.27177
2.26954
2.2494
2.23234
2.21465
2.19273
2.17245
2.1468
2.12161
2.09428
2.06945
2.04496
2.02101
1.99763
1.9748
1.95221
1.93083
1.91098
1.89241
1.87554
1.86033
1.84667
1.83461
1.82398
1.8145
1.80651
1.79933
1.79341
1.7903
1.78936
1.78933
1.78977
1.79015
1.79055
1.791
1.79553
1.8054
1.81493
1.82403
1.83478
1.84702
1.86073
1.87621
1.8935
1.9124
1.93258
1.95372
1.97543
1.99807
2.02143
2.04554
2.07133
2.09693
2.12336
2.14931
2.17457
2.19872
2.21947
2.23962
2.25519
2.26739
2.27415
2.27414
2.27375
2.27286
2.27048
2.25057
2.23343
2.21574
2.19374
2.17309
2.1473
2.12291
2.09605
2.07158
2.04702
2.0226
1.99859
1.9752
1.95244
1.93112
1.91154
1.89342
1.87703
1.86216
1.84852
1.83626
1.82528
1.81537
1.80708
1.79965
1.79352
1.79036
1.7894
1.78948
1.78973
1.79006
1.79049
1.79108
1.79551
1.80552
1.81534
1.82469
1.83563
1.84805
1.8617
1.87699
1.89376
1.91225
1.93259
1.9543
1.97708
2.00051
2.0239
2.04774
2.07286
2.09786
2.12363
2.14936
2.17501
2.19895
2.2194
2.23923
2.25484
2.26796
2.27575
2.27585
2.27503
2.27353
2.27111
2.25214
2.23563
2.21757
2.19448
2.17286
2.1469
2.12326
2.09736
2.07325
2.04844
2.02328
1.99868
1.97525
1.953
1.93243
1.91356
1.89569
1.8793
1.86413
1.84998
1.83729
1.82601
1.81588
1.80753
1.79996
1.79363
1.79038
1.78935
1.78943
1.78949
1.78973
1.79007
1.79087
1.79508
1.80512
1.81513
1.82486
1.83627
1.84913
1.86297
1.87812
1.89485
1.91291
1.93285
1.95437
1.97765
2.00158
2.02531
2.04912
2.07428
2.09915
2.12478
2.15017
2.17513
2.19827
2.21833
2.2382
2.2545
2.26835
2.27662
2.27698
2.27588
2.2743
2.27237
2.25402