# vtk DataFile Version 3.0
vtk output
ASCII
DATASET UNSTRUCTURED_GRID
FIELD FieldData 2
TIME 1 1 double
1.44
CYCLE 1 1 int
72
POINTS 16705 double
0 0 0
0.00390625 0 0
0.0078125 0 0
0.0117188 0 0
0.015625 0 0
0.0195312 0 0
0.0234375 0 0
0.0273438 0 0
0.03125 0 0
0.0351562 0 0
0.0390625 0 0
0.0429688 0 0
0.046875 0 0
0.0507812 0 0
0.0546875 0 0
0.0585938 0 0
0.0625 0 0
0.0664062 0 0
0.0703125 0 0
0.0742188 0 0
0.078125 0 0
0.0820312 0 0
0.0859375 0 0
0.0898438 0 0
0.09375 0 0
0.0976562 0 0
0.101562 0 0
0.105469 0 0
0.109375 0 0
0.113281 0 0
0.117188 0 0
0.121094 0 0
0.125 0 0
0.128906 0 0
0.132812 0 0
0.136719 0 0
0.140625 0 0
0.144531 0 0
0.148438 0 0
0.152344 0 0
0.15625 0 0
0.160156 0 0
0.164062 0 0
0.167969 0 0
0.171875 0 0
0.175781 0 0
0.179688 0 0
0.183594 0 0
0.1875 0 0
0.191406 0 0
0.195312 0 0
0.199219 0 0
0.203125 0 0
0.207031 0 0
0.210938 0 0
0.214844 0 0
0.21875 0 0
0.222656 0 0
0.226562 0 0
0.230469 0 0
0.234375 0 0
0.238281 0 0
0.242188 0 0
0.246094 0 0
0.25 0 0
0 0.00390625 0
0.00390625 0.00390625 0
0.0078125 0.00390625 0
0.0117188 0.00390625 0
0.015625 0.00390625 0
0.0195312 0.00390625 0
0.0234375 0.00390625 0
0.0273438 0.00390625 0
0.03125 0.00390625 0
0.0351562 0.00390625 0
0.0390625 0.00390625 0
0.0429688 0.00390625 0
0.046875 0.00390625 0
0.0507812 0.00390625 0
0.0546875 0.00390625 0
0.0585938 0.00390625 0
0.0625 0.00390625 0
0.0664062 0.00390625 0
0.0703125 0.00390625 0
0.0742188 0.00390625 0
0.078125 0.00390625 0
0.0820312 0.00390625 0
0.0859375 0.00390625 0
0.0898438 0.00390625 0
0.09375 0.00390625 0
0.0976562 0.00390625 0
0.101562 0.00390625 0
0.105469 0.00390625 0
0.109375 0.00390625 0
0.113281 0.00390625 0
0.117188 0.00390625 0
0.121094 0.00390625 0
0.125 0.00390625 0
0.128906 0.00390625 0
0.132812 0.00390625 0
0.136719 0.00390625 0
0.140625 0.00390625 0
0.144531 0.00390625 0
0.148438 0.00390625 0
0.152344 0.00390625 0
0.15625 0.00390625 0
0.160156 0.00390625 0
0.164062 0.00390625 0
0.167969 0.00390625 0
0.171875 0.00390625 0
0.175781 0.00390625 0
0.179688 0.00390625 0
0.183594 0.00390625 0
0.1875 0.00390625 0
0.191406 0.00390625 0
0.195312 0.00390625 0
0.199219 0.00390625 0
0.203125 0.00390625 0
0.207031 0.00390625 0
0.210938 0.00390625 0
0.214844 0.00390625 0
0.21875 0.00390625 0
0.222656 0.00390625 0
0.226562 0.00390625 0
0.230469 0.00390625 0
0.234375 0.00390625 0
0.238281 0.00390625 0
0.242188 0.00390625 0
0.246094 0.00390625 0
0.25 0.00390625 0
0 0.0078125 0
0.00390625 0.0078125 0
0.0078125 0.0078125 0
0.0117188 0.0078125 0
0.015625 0.0078125 0
0.0195312 0.0078125 0
0.0234375 0.0078125 0
0.0273438 0.0078125 0
0.03125 0.0078125 0
0.0351562 0.0078125 0
0.0390625 0.0078125 0
0.0429688 0.0078125 0
0.046875 0.0078125 0
0.0507812 0.0078125 0
0.0546875 0.0078125 0
0.0585938 0.0078125 0
0.0625 0.0078125 0
0.0664062 0.0078125 0
0.0703125 0.0078125 0
0.0742188 0.0078125 0
0.078125 0.0078125 0
0.0820312 0.0078125 0
0.0859375 0.0078125 0
0.0898438 0.0078125 0
0.09375 0.0078125 0
0.0976562 0.0078125 0
0.101562 0.0078125 0
0.105469 0.0078125 0
0.109375 0.0078125 0
0.113281 0.0078125 0
0.117188 0.0078125 0
0.121094 0.0078125 0
0.125 0.0078125 0
0.128906 0.0078125 0
0.132812 0.0078125 0
0.136719 0.0078125 0
0.140625 0.0078125 0
0.144531 0.0078125 0
0.148438 0.0078125 0
0.152344 0.0078125 0
0.15625 0.0078125 0
0.160156 0.0078125 0
0.164062 0.0078125 0
0.167969 0.0078125 0
0.171875 0.0078125 0
0.175781 0.0078125 0
0.179688 0.0078125 0
0.183594 0.0078125 0
0.1875 0.0078125 0
0.191406 0.0078125 0
0.195312 0.0078125 0
0.199219 0.0078125 0
0.203125 0.0078125 0
0.207031 0.0078125 0
0.210938 0.0078125 0
0.214844 0.0078125 0
0.21875 0.0078125 0
0.222656 0.0078125 0
0.226562 0.0078125 0
0.230469 0.0078125 0
0.234375 0.0078125 0
0.238281 0.0078125 0
0.242188 0.0078125 0
0.246094 0.0078125 0
0.25 0.0078125 0
0 0.0117188 0
0.00390625 0.0117188 0
0.0078125 0.0117188 0
0.0117188 0.0117188 0
0.015625 0.0117188 0
0.0195312 0.0117188 0
0.0234375 0.0117188 0
0.0273438 0.0117188 0
0.03125 0.0117188 0
0.0351562 0.0117188 0
0.0390625 0.0117188 0
0.0429688 0.0117188 0
0.046875 0.0117188 0
0.0507812 0.0117188 0
0.0546875 0.0117188 0
0.0585938 0.0117188 0
0.0625 0.0117188 0
0.0664062 0.0117188 0
0.0703125 0.0117188 0
0.0742188 0.0117188 0
0.078125 0.0117188 0
0.0820312 0.0117188 0
0.0859375 0.0117188 0
0.0898438 0.0117188 0
0.09375 0.0117188 0
0.0976562 0.0117188 0
0.101562 0.0117188 0
0.105469 0.0117188 0
0.109375 0.0117188 0
0.113281 0.0117188 0
0.117188 0.0117188 0
0.121094 0.0117188 0
0.125 0.0117188 0
0.128906 0.0117188 0
0.132812 0.0117188 0
0.136719 0.0117188 0
0.140625 0.0117188 0
0.144531 0.0117188 0
0.148438 0.0117188 0
0.152344 0.0117188 0
0.15625 0.0117188 0
0.160156 0.0117188 0
0.164062 0.0117188 0
0.167969 0.0117188 0
0.171875 0.0117188 0
0.175781 0.0117188 0
0.179688 0.0117188 0
0.183594 0.0117188 0
0.1875 0.0117188 0
0.191406 0.0117188 0
0.195312 0.0117188 0
0.199219 0.0117188 0
0.203125 0.0117188 0
0.207031 0.0117188 0
0.210938 0.0117188 0
0.214844 0.0117188 0
0.21875 0.0117188 0
0.222656 0.0117188 0
0.226562 0.0117188 0
0.230469 0.0117188 0
0.234375 0.0117188 0
0.238281 0.0117188 0
0.242188 0.0117188 0
0.246094 0.0117188 0
0.25 0.0117188 0
0 0.015625 0
0.00390625 0.015625 0
0.0078125 0.015625 0
0.0117188 0.015625 0
0.015625 0.015625 0
0.0195312 0.015625 0
0.0234375 0.015625 0
0.0273438 0.015625 0
0.03125 0.015625 0
0.0351562 0.015625 0
0.0390625 0.015625 0
0.0429688 0.015625 0
0.046875 0.015625 0
0.0507812 0.015625 0
0.0546875 0.015625 0
0.0585938 0.015625 0
0.0625 0.015625 0
0.0664062 0.015625 0
0.0703125 0.015625 0
0.0742188 0.015625 0
0.078125 0.015625 0
0.0820312 0.015625 0
0.0859375 0.015625 0
0.0898438 0.015625 0
0.09375 0.015625 0
0.0976562 0.015625 0
0.101562 0.015625 0
0.105469 0.015625 0
0.109375 0.015625 0
0.113281 0.015625 0
0.117188 0.015625 0
0.121094 0.015625 0
0.125 0.015625 0
0.128906 0.015625 0
0.132812 0.015625 0
0.136719 0.015625 0
0.140625 0.015625 0
0.144531 0.015625 0
0.148438 0.015625 0
0.152344 0.015625 0
0.15625 0.015625 0
0.160156 0.015625 0
0.164062 0.015625 0
0.167969 0.015625 0
0.171875 0.015625 0
0.175781 0.015625 0
0.179688 0.015625 0
0.183594 0.015625 0
0.1875 0.015625 0
0.191406 0.015625 0
0.195312 0.015625 0
0.199219 0.015625 0
0.203125 0.015625 0
0.207031 0.015625 0
0.210938 0.015625 0
0.214844 0.015625 0
0.21875 0.015625 0
0.222656 0.015625 0
0.226562 0.015625 0
0.230469 0.015625 0
0.234375 0.015625 0
0.238281 0.015625 0
0.242188 0.015625 0
0.246094 0.015625 0
0.25 0.015625 0
0 0.0195312 0
0.00390625 0.0195312 0
0.0078125 0.0195312 0
0.0117188 0.0195312 0
0.015625 0.0195312 0
0.0195312 0.0195312 0
0.0234375 0.0195312 0
0.0273438 0.0195312 0
0.03125 0.0195312 0
0.0351562 0.0195312 0
0.0390625 0.0195312 0
0.0429688 0.0195312 0
0.046875 0.0195312 0
0.0507812 0.0195312 0
0.0546875 0.0195312 0
0.0585938 0.0195312 0
0.0625 0.0195312 0
0.0664062 0.0195312 0
0.0703125 0.0195312 0
0.0742188 0.0195312 0
0.078125 0.0195312 0
0.0820312 0.0195312 0
0.0859375 0.0195312 0
0.0898438 0.0195312 0
0.09375 0.0195312 0
0.0976562 0.0195312 0
0.101562 0.0195312 0
0.105469 0.0195312 0
0.109375 0.0195312 0
0.113281 0.0195312 0
0.117188 0.0195312 0
0.121094 0.0195312 0
0.125 0.0195312 0
0.128906 0.0195312 0
0.132812 0.0195312 0
0.136719 0.0195312 0
0.140625 0.0195312 0
0.144531 0.0195312 0
0.148438 0.0195312 0
0.152344 0.0195312 0
0.15625 0.0195312 0
0.160156 0.0195312 0
0.164062 0.0195312 0
0.167969 0.0195312 0
0.171875 0.0195312 0
0.175781 0.0195312 0
0.179688 0.0195312 0
0.183594 0.0195312 0
0.1875 0.0195312 0
0.191406 0.0195312 0
0.195312 0.0195312 0
0.199219 0.0195312 0
0.203125 0.0195312 0
0.207031 0.0195312 0
0.210938 0.0195312 0
0.214844 0.0195312 0
0.21875 0.0195312 0
0.222656 0.0195312 0
0.226562 0.0195312 0
0.230469 0.0195312 0
0.234375 0.0195312 0
0.238281 0.0195312 0
0.242188 0.0195312 0
0.246094 0.0195312 0
0.25 0.0195312 0
0 0.0234375 0
0.00390625 0.0234375 0
0.0078125 0.0234375 0
0.0117188 0.0234375 0
0.015625 0.0234375 0
0.0195312 0.0234375 0
0.0234375 0.0234375 0
0.0273438 0.0234375 0
0.03125 0.0234375 0
0.0351562 0.0234375 0
0.0390625 0.0234375 0
0.0429688 0.0234375 0
0.046875 0.0234375 0
0.0507812 0.0234375 0
0.0546875 0.0234375 0
0.0585938 0.0234375 0
0.0625 0.0234375 0
0.0664062 0.0234375 0
0.0703125 0.0234375 0
0.0742188 0.0234375 0
0.078125 0.0234375 0
0.0820312 0.0234375 0
0.0859375 0.0234375 0
0.0898438 0.0234375 0
0.09375 0.0234375 0
0.0976562 0.0234375 0
0.101562 0.0234375 0
0.105469 0.0234375 0
0.109375 0.0234375 0
0.113281 0.0234375 0
0.117188 0.0234375 0
0.121094 0.0234375 0
0.125 0.0234375 0
0.128906 0.0234375 0
0.132812 0.0234375 0
0.136719 0.0234375 0
0.140625 0.0234375 0
0.144531 0.0234375 0
0.148438 0.0234375 0
0.152344 0.0234375 0
0.15625 0.0234375 0
0.160156 0.0234375 0
0.164062 0.0234375 0
0.167969 0.0234375 0
0.171875 0.0234375 0
0.175781 0.0234375 0
0.179688 0.0234375 0
0.183594 0.0234375 0
0.1875 0.0234375 0
0.191406 0.0234375 0
0.195312 0.0234375 0
0.199219 0.0234375 0
0.203125 0.0234375 0
0.207031 0.0234375 0
0.210938 0.0234375 0
0.214844 0.0234375 0
0.21875 0.0234375 0
0.222656 0.0234375 0
0.226562 0.0234375 0
0.230469 0.0234375 0
0.234375 0.0234375 0
0.238281 0.0234375 0
0.242188 0.0234375 0
0.246094 0.0234375 0
0.25 0.0234375 0
0 0.0273438 0
0.00390625 0.0273438 0
0.0078125 0.0273438 0
0.0117188 0.0273438 0
0.015625 0.0273438 0
0.0195312 0.0273438 0
0.0234375 0.0273438 0
0.0273438 0.0273438 0
0.03125 0.0273438 0
0.0351562 0.0273438 0
0.0390625 0.0273438 0
0.0429688 0.0273438 0
0.046875 0.0273438 0
0.0507812 0.0273438 0
0.0546875 0.0273438 0
0.0585938 0.0273438 0
0.0625 0.0273438 0
0.0664062 0.0273438 0
0.0703125 0.0273438 0
0.0742188 0.0273438 0
0.078125 0.0273438 0
0.0820312 0.0273438 0
0.0859375 0.0273438 0
0.0898438 0.0273438 0
0.09375 0.0273438 0
0.0976562 0.0273438 0
0.101562 0.0273438 0
0.105469 0.0273438 0
0.109375 0.0273438 0
0.113281 0.0273438 0
0.117188 0.0273438 0
0.121094 0.0273438 0
0.125 0.0273438 0
0.128906 0.0273438 0
0.132812 0.0273438 0
0.136719 0.0273438 0
0.140625 0.0273438 0
0.144531 0.0273438 0
0.148438 0.0273438 0
[...]
CELL_DATA 16384
SCALARS solution double
LOOKUP_TABLE default
2.04125
2.04116
2.04101
2.04096
2.04089
2.03951
2.03754
2.03763
2.03778
2.03785
2.03785
2.03784
2.03798
2.03777
2.0376
2.03764
2.03755
2.03752
2.03742
2.03758
2.03756
2.03716
2.03652
2.03641
2.03648
2.03631
2.03671
2.03711
2.03726
2.03771
2.03805
2.0382
2.03816
2.03794
2.03761
2.037
2.03636
2.03589
2.03564
2.03563
2.0357
2.03614
2.03679
2.03716
2.03751
2.03778
2.03785
2.03757
2.0375
2.03753
2.03757
2.03745
2.03743
2.03736
2.03738
2.03772
2.03851
2.0389
2.03907
2.0394
2.04027
2.0408
2.04092
2.04096
2.03445
2.03367
2.03345
2.03351
2.03371
2.03622
2.03957
2.04081
2.04131
2.04188
2.04249
2.0428
2.04259
2.0427
2.04258
2.04259
2.04259
2.04261
2.04218
2.04221
2.04259
2.04257
2.04238
2.04203
2.04204
2.04182
2.04266
2.04334
2.04318
2.04409
2.04437
2.04431
2.04417
2.0441
2.04418
2.04379
2.04264
2.04172
2.04088
2.04021
2.04019
2.04051
2.04105
2.0421
2.04278
2.04298
2.0434
2.04333
2.04293
2.04284
2.04275
2.04214
2.04171
2.04142
2.04137
2.04142
2.04097
2.04052
2.03973
2.03889
2.03818
2.03729
2.03657
2.03554
2.00135
2.00056
2.00044
2.00057
2.00098
2.00518
2.01098
2.01246
2.01352
2.0148
2.01566
2.01666
2.01752
2.019
2.02055
2.02199
2.02357
2.02493
2.02581
2.02726
2.02986
2.03208
2.03365
2.03523
2.03868
2.04209
2.0435
2.04452
2.04447
2.04452
2.04445
2.04438
2.04445
2.04458
2.04471
2.04445
2.04357
2.04266
2.04124
2.0385
2.03558
2.03341
2.03178
2.02998
2.02839
2.02693
2.02499
2.02302
2.02145
2.02048
2.01931
2.01753
2.01634
2.0158
2.01533
2.01462
2.01281
2.01124
2.00993
2.00853
2.0067
2.00496
2.0038
2.00269
1.98336
1.98329
1.98324
1.98328
1.98334
1.98369
1.98508
1.98631
1.98805
1.98988
1.9913
1.99301
1.99497
1.9973
1.99994
2.0029
2.00595
2.00882
2.0109
2.01416
2.01845
2.02246
2.02573
2.0287
2.03529
2.04274
2.04594
2.04778
2.04882
2.04899
2.04864
2.04841
2.04844
2.04867
2.04881
2.04863
2.04675
2.04425
2.04155
2.03701
2.03183
2.02741
2.02357
2.01912
2.01558
2.01241
2.00834
2.00459
2.00185
1.99997
1.99767
1.99517
1.99343
1.99211
1.99083
1.98952
1.98805
1.98646
1.98546
1.98485
1.9843
1.98395
1.98369
1.98349
1.97806
1.97797
1.97787
1.97782
1.97782
1.97855
1.98059
1.98243
1.98444
1.98644
1.98851
1.99089
1.99365
1.9965
1.99912
2.00209
2.00537
2.00865
2.01124
2.01518
2.01943
2.02296
2.02694
2.03137
2.03713
2.04401
2.04807
2.05042
2.05293
2.05426
2.05428
2.05394
2.05369
2.05365
2.05356
2.05288
2.0502
2.0463
2.04255
2.038
2.03282
2.02847
2.02471
2.02024
2.01634
2.01285
2.00829
2.00427
2.00099
1.9987
1.99623
1.99375
1.99115
1.98882
1.98673
1.98482
1.98323
1.98152
1.98009
1.97909
1.9786
1.97842
1.97831
1.97818
1.97091
1.97086
1.97077
1.97072
1.97073
1.97182
1.97441
1.9767
1.9788
1.98096
1.98366
1.98662
1.99002
1.99345
1.99661
2.00053
2.00447
2.00829
2.01178
2.01634
2.02131
2.025
2.03001
2.03547
2.03984
2.04532
2.04978
2.05255
2.05625
2.0591
2.05945
2.05947
2.05921
2.05882
2.05808
2.05594
2.05242
2.04832
2.04429
2.03988
2.03499
2.03057
2.02682
2.02242
2.01789
2.01397
2.0092
2.00449
2.00012
1.99642
1.99276
1.98991
1.98639
1.98329
1.98063
1.97813
1.97645
1.97467
1.97295
1.97159
1.97109
1.97103
1.97105
1.97098
1.96439
1.96453
1.96465
1.96482
1.965
1.9667
1.96968
1.97211
1.9744
1.97692
1.98006
1.98334
1.98697
1.99079
1.99479
1.99963
2.00424
2.00854
2.0126
2.01776
2.02351
2.02802
2.03371
2.03892
2.04275
2.04735
2.0527
2.05608
2.06004
2.0638
2.06485
2.0652
2.06514
2.06437
2.06295
2.05933
2.05491
2.05078
2.0468
2.04269
2.038
2.0334
2.02927
2.02456
2.01937
2.01472
2.0098
2.00449
1.99951
1.99494
1.98989
1.98615
1.98254
1.97922
1.97616
1.9733
1.97105
1.96893
1.96711
1.96536
1.96447
1.96436
1.96437
1.96435
1.95795
1.95817
1.95845
1.95882
1.95927
1.96164
1.96521
1.96795
1.97067
1.97363
1.9771
1.98083
1.98498
1.98945
1.99424
1.99943
2.00439
2.00894
2.01365
2.01924
2.02547
2.03099
2.03641
2.0418
2.04614
2.05024
2.05635
2.06028
2.06428
2.06856
2.0701
2.07059
2.07052
2.06976
2.06814
2.06375
2.05857
2.05424
2.05002
2.04575
2.04086
2.03588
2.03122
2.02622
2.02056
2.01529
2.00986
2.00434
1.99912
1.99438
1.98909
1.98423
1.97998
1.97633
1.97281
1.96949
1.96646
1.9637
1.96152
1.95929
1.95796
1.95767
1.95772
1.9578
1.95276
1.95302
1.95339
1.95387
1.95458
1.95734
1.96112
1.96397
1.96701
1.97041
1.97419
1.97826
1.98266
1.98752
1.99286
1.99853
2.00401
2.00906
2.0145
2.02041
2.02722
2.03342
2.03864
2.04449
2.04976
2.05409
2.06046
2.06463
2.0687
2.0732
2.07485
2.07525
2.07511
2.07447
2.07324
2.069
2.06387
2.05925
2.05437
2.04924
2.04371
2.03822
2.0331
2.02789
2.02178
2.01586
2.01003
2.00393
1.99798
1.99319
1.98818
1.98312
1.97823
1.97379
1.96978
1.96625
1.96301
1.9599
1.95735
1.95484
1.95313
1.95254
1.9525
1.95258
1.94847
1.94868
1.94907
1.94967
1.95054
1.95362
1.95745
1.96029
1.96356
1.9674
1.97157
1.97603
1.98068
1.98587
1.99151
1.99729
2.0031
2.00869
2.01496
2.02154
2.02885
2.03592
2.04152
2.04774
2.05399
2.059
2.0649
2.06896
2.07269
2.07698
2.07872
2.07921
2.07928
2.07886
2.07801
2.0742
2.06958
2.06506
2.0596
2.05365
2.04745
2.04122
2.03513
2.02914
2.02241
2.01587
2.00969
2.00314
1.9965
1.99153
1.98676
1.98183
1.97703
1.97227
1.96764
1.96376
1.96035
1.95718
1.95449
1.95187
1.94981
1.9488
1.94858
1.94845
1.94563
1.94564
1.94592
1.94641
1.94743
1.95078
1.9544
1.95727
1.96069
1.96476
1.9692
1.97403
1.97912
1.98463
1.99038
1.99646
2.00253
2.00861
2.01568
2.02273
2.0304
2.0385
2.04487
2.05143
2.05835
2.06395
2.06954
2.07352
2.07659
2.08022
2.08203
2.08274
2.08318
2.08315
2.08253
2.07892
2.07473
2.07035
2.06448
2.05806
2.05137
2.04439
2.03726
2.0303
2.02303
2.0159
2.00938
2.00257
1.99554
1.98993
1.98478
1.97983
1.97524
1.97076
1.96615
1.96197
1.95835
1.95517
1.95239
1.94974
1.94758
1.94637
1.94605
1.94579
1.94343
1.94326
1.94329
1.94352
1.94461
1.94823
1.95171
1.95473
1.9584
1.96274
1.96741
1.97253
1.97796
1.98383
1.98982
1.99642
2.00272
2.00908
2.01691
2.02423
2.03203
2.04072
2.04785
2.05471
2.06202
2.06792
2.07349
2.07766
2.08073
2.08405
2.08579
2.08636
2.08684
2.08706
2.08669
2.08316
2.079
2.07453
2.06837
2.0617
2.05458
2.04707
2.03937
2.03195
2.02449
2.01704
2.01005
2.00279
1.99534
1.98891
1.98294
1.9776
1.9729
1.96844
1.96392
1.95978
1.95607
1.95287
1.95005
1.94748
1.94548
1.94433
1.94401
1.94372
1.9413
1.94103
1.94094
1.941
1.94222
1.94601
1.94956
1.95285
1.95695
1.96163
1.96659
1.9721
1.97788
1.98409
1.9905
1.99739
2.00379
2.01015
2.01851
2.02602
2.03358
2.0422
2.0496
2.05663
2.0641
2.07042
2.07634
2.08135
2.08514
2.08871
2.09044
2.09061
2.09059
2.09054
2.09027
2.08654
2.08202
2.07726
2.07082
2.06412
2.0569
2.0493
2.04156
2.0341
2.02668
2.01901
2.01161
2.00395
1.99604
1.98904
1.98244
1.97626
1.9709
1.96608
1.96154
1.95747
1.9537
1.95045
1.94762
1.94501
1.94304
1.94193
1.94168
1.94152
1.93841
1.93837
1.93844
1.93861
1.94029
1.94417
1.94787
1.9514
1.95584
1.96084
1.96616
1.972
1.97808
1.98461
1.99143
1.99855
2.00513
2.01155
2.02007
2.02762
2.03497
2.04328
2.05084
2.05814
2.06581
2.0726
2.07903
2.08489
2.08949
2.09353
2.09547
2.09542
2.09503
2.09428
2.09329
2.08879
2.08365
2.07876
2.0725
2.06604
2.05908
2.05159
2.04379
2.03618
2.02863
2.02085
2.01318
2.00553
1.99726
1.98999
1.98311
1.97629
1.97015
1.96456
1.95947
1.95522
1.95125
1.94785
1.94493
1.9421
1.93993
1.93871
1.93846
1.93844
1.93598
1.93622
1.93658
1.93691
1.93916
1.94325
1.94694
1.95054
1.95498
1.96
1.96536
1.97133
1.97765
1.9844
1.99157
1.99892
2.00594
2.01277
2.0214
2.02921
2.03659
2.04455
2.05222
2.05986
2.06785
2.07513
2.08186
2.08811
2.09311
2.09747
2.09968
2.09974
2.09905
2.09781
2.09616
2.09096
2.08526
2.08027
2.07423
2.068
2.06119
2.05376
2.04583
2.03793
2.0301
2.02211
2.01429
2.00675
1.99852
1.99101
1.98388
1.97685
1.97032
1.96425
1.95864
1.95391
1.94942
1.94562
1.94258
1.93963
1.93731
1.93599
1.93574
1.93583
1.93432
1.93469
1.93518
1.93571
1.93832
1.94261
1.94626
1.94993
1.95433
1.95921
1.96446
1.97036
1.97667
1.98348
1.99081
1.99829
2.00584
2.01329
2.02226
2.03071
2.03863
2.04668
2.0545
2.06219
2.07017
2.07758
2.0843
2.09051
2.09554
2.09989
2.10211
2.1024
2.10196
2.10086
2.09933
2.09406
2.0881
2.08286
2.07655
2.07006
2.06302
2.05549
2.0475
2.03948
2.03143
2.02317
2.01499
2.00725
1.99902
1.9914
1.98427
1.97726
1.9705
1.9643
1.95857
1.95353
1.94869
1.94442
1.94108
1.93801
1.93557
1.93416
1.93389
1.93406
1.93306
1.93338
1.93384
1.93438
1.93718
1.94153
1.94515
1.94901
1.9535
1.95845
1.96375
1.96962
1.9759
1.98266
1.99012
1.99773
2.00566
2.01372
2.02301
2.03219
2.04084
2.04925
2.05749
2.06538
2.07316
2.08014
2.08627
2.09214
2.09705
2.10132
2.1036
2.10401
2.10415
2.10377
2.10296
2.09801
2.09211
2.08659
2.07975
2.07262
2.06498
2.05714
2.04895
2.04067
2.03228
2.02365
2.01514
2.00711
1.99896
1.99132
1.98426
1.97734
1.97065
1.96451
1.95867
1.95346
1.94848
1.944
1.94049
1.93739
1.93484
1.93325
1.93281
1.93289
1.93226
1.93237
1.93263
1.93303
1.93592
1.9403
1.94393
1.94796
1.9526
1.95772
1.96318
1.96915
1.9756
1.98254
1.99022
1.99798
2.0061
2.0146
2.02402
2.03366
2.04277
2.05167
2.06036
2.06846
2.07619
2.08292
2.08858
2.09389
2.09847
2.10266
2.1051
2.10584
2.10636
2.10654
2.10611
2.10135
2.09568
2.09013
2.08309
2.0757
2.06759
2.05925
2.05044
2.04152
2.03263
2.02371
2.01514
2.00702
1.99898
1.99128
1.98423
1.97737
1.97066
1.96445
1.95849
1.95316
1.94831
1.94391
1.94041
1.93732
1.93467
1.93289
1.93228
1.93223
1.93186
1.93182
1.93184
1.93203
1.93496
1.93942
1.94299
1.94715
1.95193
1.95725
1.9629
1.96909
1.97581
1.98308
1.991
1.99896
2.00734
2.016
2.02549
2.03515
2.04446
2.05371
2.06266
2.07087
2.07864
2.08541
2.09108
2.09632
2.10078
2.10486
2.10722
2.10798
2.1085
2.10869
2.10834
2.1036
2.09815
2.09293
2.08608
2.07862
2.07019
2.06148
2.05214
2.04268
2.03338
2.02434
2.01566
2.00734
1.99918
1.9911
1.98378
1.97681
1.96996
1.96365
1.95774
1.95257
1.94802
1.94386
1.9404
1.9373
1.93462
1.93278
1.93209
1.93194
1.93127
1.93117
1.93114
1.93125
1.93428
1.93881
1.94237
1.94675
1.95175
1.95739
1.96336
1.96987
1.97682
1.98432
1.99234
2.00045
2.00889
2.01747
2.02692
2.03651
2.04579
2.05512
2.06402
2.07226
2.08024
2.08739
2.09359
2.09939
2.10418
2.10822
2.11027
2.11045
2.11041
2.11027
2.10998
2.10531
2.09984
2.09476
2.08805
2.08067
2.07221
2.06344
2.05403
2.04461
2.03534
2.0262
2.01723
2.00846
1.99966
1.99104
1.98324
1.97606
1.96914
1.96288
1.95711
1.95201
1.94752
1.94333
1.93982
1.93668
1.93396
1.93214
1.93149
1.93138
1.92993
1.92997
1.93013
1.9304
1.93364
1.93824
1.94181
1.94642
1.95166
1.95757
1.96385
1.97073
1.97798
1.98572
1.99383
2.00201
2.0104
2.01879
2.02802
2.03739
2.04651
2.05576
2.06467
2.07307
2.08143
2.08907
2.09588
2.10226
2.10744
2.11154
2.11342
2.1133
2.11288
2.11224
2.11151
2.10662
2.10088
2.09568
2.08898
2.08167
2.07343
2.06503
2.05598
2.04684
2.03768
2.02845
2.0192
2.00998
2.00071
1.99154
1.98319
1.97561
1.96852
1.96227
1.95649
1.95119
1.94645
1.94198
1.93829
1.93514
1.93239
1.93059
1.93
1.92993
1.92849
1.92872
1.9291
1.92965
1.93317
1.9378
1.94134
1.94598
1.95124
1.95718
1.9636
1.97069
1.97817
1.98618
1.99444
2.0029
2.01145
2.01988
2.02908
2.03822
2.04711
2.05619
2.06523
2.07397
2.08276
2.09078
2.09787
2.10435
2.10964
2.11387
2.11589
2.11593
2.11556
2.11475
2.11361
2.10814
2.10183
2.09636
2.08969
2.08252
2.07451
2.06643
2.0577
2.04878
2.03963
2.03025
2.02087
2.0115
2.00205
1.99268
1.98407
1.97612
1.96854
1.9619
1.9558
1.95014
1.94519
1.94052
1.93673
1.93362
1.93083
1.929
1.9284
1.92837
1.92748
1.92786
1.9284
1.92916
1.93289
1.93751
1.94101
1.94559
1.95072
1.95652
1.96287
1.96988
1.97733
1.98546
1.99393
2.00278
2.01168
2.02062
2.03021
2.03952
2.04844
2.05746
2.0665
2.07537
2.08434
2.09245
2.09951
2.10579
2.11087
2.11507
2.11729
2.11771
2.11769
2.11704
2.11595
2.11028
2.10358
2.09773
2.09079
2.08355
2.0756
2.06762
2.05898
2.05005
2.04071
2.03126
2.02186
2.01251
2.00319
1.99388
1.98517
1.97704
1.96908
1.96202
1.95557
1.94955
1.94436
1.9396
1.93568
1.93253
1.9297
1.9278
1.92718
1.92722
1.92701
1.92748
1.92805
1.92885
1.93257
1.93721
1.94078
1.94537
1.95046
1.95608
1.96225
1.96913
1.97652
1.98468
1.99322
2.00231
2.01158
2.02099
2.03114
2.04096
2.05025
2.05961
2.06875
2.07745
2.08607
2.0939
2.10077
2.10682
2.11173
2.11587
2.11805
2.11853
2.11878
2.11859
2.11807
2.11284
2.10622
2.10015
2.09284
2.08515
2.07679
2.06855
2.05978
2.05068
2.04113
2.03159
2.02215
2.01284
2.00368
1.99466
1.98612
1.97806
1.97004
1.96281
1.9562
1.94999
1.94466
1.93978
1.93564
1.93222
1.92926
1.92726
1.9266
1.92667
1.92672
1.92709
1.92756
1.92835
1.93205
1.93667
1.94035
1.94507
1.95028
1.95596
1.96217
1.96902
1.9764
1.98458
1.99315
2.00235
2.01173
2.02144
2.03192
2.04216
2.05198
2.06173
2.07108
2.07976
2.08808
2.09554
2.10209
2.10782
2.11258
2.11668
2.11876
2.11922
2.11955
2.11961
2.11955
2.1149
2.10868
2.10281
2.09558
2.0877
2.07888
2.06986
2.06038
2.05074
2.04095
2.03135
2.02199
2.01284
2.00391
1.99518
1.98688
1.97903
1.9711
1.96377
1.95702
1.95066
1.94519
1.94023
1.9359
1.9323
1.92925
1.92717
1.92645
1.92645
1.92652
1.92669
1.92699
1.92782
1.93145
1.93603
1.93984
1.94471
1.9501
1.95601
1.9625
1.96957
1.97709
1.98532
1.9939
2.00314
2.01249
2.02235
2.03282
2.04315
2.05325
2.06336
2.07301
2.08182
2.08997
2.09719
2.10362
2.10925
2.11397
2.11797
2.11995
2.12031
2.12061
2.12065
2.12057
2.1162
2.1103
2.10501
2.09812
2.09024
2.08104
2.07154
2.06136
2.05105
2.04098
2.03129
2.02199
2.01296
2.00414
1.99552
1.98725
1.97948
1.97169
1.96429
1.95743
1.95101
1.94545
1.94046
1.93613
1.93254
1.9295
1.92737
1.92659
1.92651
1.92636
1.92637
1.92653
1.92728
1.93093
1.93548
1.93937
1.94441
1.95004
1.95618
1.96297
1.97028
1.978
1.98629
1.99489
2.00413
2.01352
2.02336
2.03369
2.04399
2.05414
2.06423
2.07396
2.08292
2.09113
2.09841
2.10501
2.11091
2.11591
2.11988
2.12166
2.12183
2.12192
2.1218
2.12159
2.11724
2.11147
2.10643
2.09987
2.0921
2.08282
2.07317
2.06284
2.05244
2.04221
2.03224
2.02258
2.01325
2.00427
1.99546
1.98695
1.9791
1.97139
1.96404
1.95726
1.95091
1.94535
1.94041
1.93619
1.93268
1.92969
1.92751
1.92668
1.9265
1.92591
1.92589
1.92602
1.92672
1.93059
1.93504
1.93898
1.94414
1.94999
1.95639
1.96345
1.97102
1.97899
1.98739
1.99601
2.00514
2.01441
2.02415
2.03433
2.04453
2.0546
2.06442
2.0739
2.08292
2.09142
2.09913
2.10624
2.11259
2.1179
2.12201
2.1238
2.12385
2.12363
2.12312
2.12261
2.1181
2.11225
2.10705
2.10029
2.0926
2.08369
2.07458
2.06462
2.05453
2.04438
2.03417
2.02406
2.01416
2.00453
1.99528
1.98638
1.97832
1.97062
1.96332
1.95664
1.95041
1.94495
1.94007
1.93592
1.93246
1.92947
1.92723
1.92627
1.92606
1.92545
1.92543
1.9256
1.92643
1.93043
1.93479
1.93872
1.94395
1.94988
1.95644
1.96369
1.97152
1.97981
1.98849
1.99731
2.00635
2.01543
2.02494
2.03482
2.04483
2.05475
2.06438
2.07378
2.08293
2.09173
2.09997
2.10751
2.11405
2.11954
2.12388
2.1258
2.12591
2.12557
2.12477
2.12384
2.11878
2.11245
2.10693
2.09998
2.09241
2.08395
2.07543
2.06611
2.05649
2.0465
2.03625
2.02594
2.01569
2.00552
1.99563
1.98619
1.97771
1.96986
1.96256
1.95594
1.94986
1.94452
1.93972
1.93562
1.93214
1.92912
1.92687
1.92584
1.92558
1.9252
1.92523
1.92551
1.92649
1.93067
1.93488
1.93882
1.94399
1.9498
1.9563
1.96357
1.97142
1.97988
1.98887
1.99802
2.00736
2.01649
2.02593
2.03562
2.04532
2.05504
2.06463
2.07421
2.08371
2.09282
2.10127
2.10888
2.11536
2.12078
2.12519
2.12728
2.12753
2.12727
2.12639
2.1253
2.11978
2.11288
2.10696
2.09989
2.09244
2.08421
2.07594
2.06686
2.05752
2.04776
2.03771
2.02754
2.01721
2.00687
1.99667
1.98676
1.97777
1.96963
1.96225
1.95566
1.94964
1.94434
1.93956
1.93539
1.93185
1.92877
1.92653
1.92551
1.92526
1.9249
1.92505
1.92544
1.92668
1.93101
1.93518
1.9392
1.94433
1.95003
1.95644
1.9636
1.97132
1.97968
1.98864
1.99789
2.00759
2.01707
2.02682
2.03672
2.04644
2.05612
2.0658
2.07556
2.08503
2.09409
2.10241
2.10993
2.11631
2.12152
2.12562
2.12754
2.12781
2.12795
2.12759
2.12676
2.12128
2.11425
2.10805
2.10067
2.09295
2.08463
2.07629
2.06727
2.05799
2.04826
2.03823
2.0282
2.01805
2.00783
1.99777
1.98799
1.97898
1.97075
1.96311
1.95625
1.94999
1.94443
1.93942
1.93506
1.93138
1.9282
1.92598
1.92503
1.92484
1.92441
1.92468
1.92519
1.92674
1.93125
1.93542
1.93958
1.94479
1.95052
1.9569
1.96398
1.97154
1.97971
1.9885
1.99774
2.00744
2.01719
2.02739
2.03774
2.04779
2.05774
2.06761
2.07736
2.08664
2.09527
2.10312
2.11034
2.11655
2.12159
2.12551
2.12726
2.1276
2.12796
2.12818
2.12794
2.12291
2.11618
2.11015
2.10251
2.09435
2.0855
2.07669
2.06751
2.05805
2.04813
2.03796
2.02798
2.01804
2.00819
1.99872
1.98937
1.98053
1.97224
1.96436
1.95711
1.95046
1.94456
1.93925
1.93464
1.93078
1.92753
1.9253
1.92442
1.92431
1.92395
1.92425
1.9247
1.92665
1.93119
1.93542
1.93975
1.94503
1.9508
1.95715
1.96422
1.97178
1.9799
1.98866
1.99792
2.0076
2.01752
2.02791
2.03856
2.049
2.05928
2.06937
2.07916
2.08832
2.09662
2.10404
2.11077
2.11655
2.12146
2.12544
2.12725
2.12779
2.12832
2.12867
2.12874
2.12407
2.11784
2.11215
2.10459
2.09634
2.08713
2.07772
2.06797
2.05807
2.04792
2.03766
2.02776
2.01801
2.00847
1.99941
1.9904
1.98161
1.97317
1.96513
1.95766
1.95076
1.94468
1.93919
1.93439
1.93039
1.92704
1.92473
1.92388
1.92382
1.92358
1.92388
1.92429
1.92649
1.93103
1.93529
1.93971
1.94506
1.95086
1.95721
1.96427
1.97189
1.98008
1.98894
1.9984
2.00819
2.01822
2.02869
2.03939
2.05001
2.06045
2.07064
2.08045
2.08959
2.09782
2.10509
2.11166
2.11713
2.12179
2.12576
2.12785
2.12849
2.12903
2.12927
2.12922
2.12466
2.11868
2.11338
2.10615
2.09815
2.08887
2.07926
2.06922
2.05888
2.04836
2.03785
2.02786
2.01818
2.00871
1.99958
1.99051
1.98169
1.97319
1.96519
1.9577
1.9508
1.94469
1.93919
1.93433
1.93025
1.9268
1.9244
1.9235
1.92341
1.9233
1.92362
1.92409
1.92624
1.93078
1.93505
1.93953
1.94497
1.9509
1.95736
1.96445
1.97214
1.98043
1.98942
1.999
2.00893
2.01906
2.02951
2.04027
2.05093
2.06136
2.0714
2.08104
2.0901
2.09845
2.10598
2.1127
2.11828
2.12301
2.12699
2.12895
2.12937
2.12974
2.12975
2.12943
2.12481
2.11882
2.11364
2.10662
2.09908
2.09015
2.08077
2.07079
2.06039
2.04968
2.0389
2.02851
2.01841
2.00863
1.99923
1.99006
1.98126
1.97288
1.96495
1.95749
1.95062
1.9445
1.93901
1.93419
1.93015
1.92669
1.92428
1.92332
1.92316
1.92318
1.92342
1.92384
1.92579
1.93024
1.93449
1.93899
1.94453
1.95066
1.95743
1.96481
1.9727
1.9811
1.99009
1.99958
2.00944
2.0196
2.03009
2.04079
2.05141
2.06179
2.0717
2.08121
2.09015
2.09844
2.10623
2.11344
2.11955
2.12472
2.12891
2.13072
2.1308
2.13062
2.13013
2.12943
2.12452
2.11849
2.11339
2.10649
2.09926
2.09066
2.08161
2.07188
2.06161
2.05099
2.04019
2.02953
2.01896
2.00867
1.99886
1.9895
1.98066
1.97229
1.96438
1.95699
1.95018
1.94406
1.93862
1.9339
1.93002
1.92669
1.92437
1.92339
1.92314
1.92351
1.92357
1.92373
1.9254
1.92967
1.93385
1.93835
1.94393
1.95022
1.95721
1.96493
1.97317
1.98179
1.99078
2.00014
2.00988
2.01984
2.03013
2.04062
2.05119
2.06161
2.07165
2.08128
2.09025
2.09857
2.10646
2.11394
2.12052
2.12613
2.13063
2.13244
2.13237
2.13183
2.13084
2.12967
2.12441
2.11827
2.11323
2.1064
2.0993
2.0908
2.08173
2.07204
2.06195
2.05158
2.04104
2.03047
2.01968
2.00906
1.99882
1.98906
1.97998
1.97149
1.96354
1.95625
1.9496
1.94362
1.93836
1.93382
1.93014
1.92697
1.92477
1.92384
1.92356
1.92408
1.92403
1.92412
1.92542
1.9295
1.93357
1.93794
1.94353
1.94992
1.95702
1.96481
1.97316
1.98199
1.9911
2.00051
2.01022
2.02004
2.03013
2.04049
2.05101
2.06144
2.07164
2.08153
2.09076
2.09922
2.10713
2.1145
2.12099
2.12659
2.13117
2.13307
2.13321
2.13282
2.13181
2.13056
2.12518
2.11887
2.11358
2.10661
2.09941
2.09088
2.08169
2.07187
2.0618
2.05161
2.04128
2.03079
2.02014
2.00952
1.99912
1.9891
1.97973
1.97102
1.963
1.95581
1.94936
1.9436
1.93856
1.93421
1.93066
1.92757
1.92541
1.92455
1.92424
1.9244
1.92436
1.92459
1.92569
1.92976
1.93391
1.93822
1.94375
1.95006
1.95708
1.9648
1.97306
1.9819
1.99102
2.00051
2.01035
2.02025
2.03034
2.04083
2.05137
2.06182
2.0721
2.08205
2.09137
2.10003
2.10796
2.1151
2.12116
2.12627
2.13054
2.13257
2.13293
2.13313
2.13276
2.13206
2.12693
2.12049
2.11477
2.10725
2.09959
2.09089
2.08162
2.07183
2.06182
2.05157
2.04125
2.03087
2.02037
2.01008
1.99989
1.98996
1.98058
1.97171
1.9635
1.95616
1.94966
1.94389
1.93889
1.93458
1.93107
1.928
1.92583
1.92496
1.92459
1.92404
1.92414
1.92459
1.92587
1.93011
1.93447
1.93887
1.94439
1.95065
1.95758
1.96508
1.97309
1.98183
1.99091
2.00039
2.01035
2.02042
2.03073
2.04147
2.0522
2.06268
2.07298
2.08281
2.09204
2.10073
2.10866
2.11559
2.12133
2.12605