# vtk DataFile Version 3.0
vtk output
ASCII
DATASET UNSTRUCTURED_GRID
FIELD FieldData 2
TIME 1 1 double
2.12
CYCLE 1 1 int
106
POINTS 16705 double
0 0 0
0.00390625 0 0
0.0078125 0 0
0.0117188 0 0
0.015625 0 0
0.0195312 0 0
0.0234375 0 0
0.0273438 0 0
0.03125 0 0
0.0351562 0 0
0.0390625 0 0
0.0429688 0 0
0.046875 0 0
0.0507812 0 0
0.0546875 0 0
0.0585938 0 0
0.0625 0 0
0.0664062 0 0
0.0703125 0 0
0.0742188 0 0
0.078125 0 0
0.0820312 0 0
0.0859375 0 0
0.0898438 0 0
0.09375 0 0
0.0976562 0 0
0.101562 0 0
0.105469 0 0
0.109375 0 0
0.113281 0 0
0.117188 0 0
0.121094 0 0
0.125 0 0
0.128906 0 0
0.132812 0 0
0.136719 0 0
0.140625 0 0
0.144531 0 0
0.148438 0 0
0.152344 0 0
0.15625 0 0
0.160156 0 0
0.164062 0 0
0.167969 0 0
0.171875 0 0
0.175781 0 0
0.179688 0 0
0.183594 0 0
0.1875 0 0
0.191406 0 0
0.195312 0 0
0.199219 0 0
0.203125 0 0
0.207031 0 0
0.210938 0 0
0.214844 0 0
0.21875 0 0
0.222656 0 0
0.226562 0 0
0.230469 0 0
0.234375 0 0
0.238281 0 0
0.242188 0 0
0.246094 0 0
0.25 0 0
0 0.00390625 0
0.00390625 0.00390625 0
0.0078125 0.00390625 0
0.0117188 0.00390625 0
0.015625 0.00390625 0
0.0195312 0.00390625 0
0.0234375 0.00390625 0
0.0273438 0.00390625 0
0.03125 0.00390625 0
0.0351562 0.00390625 0
0.0390625 0.00390625 0
0.0429688 0.00390625 0
0.046875 0.00390625 0
0.0507812 0.00390625 0
0.0546875 0.00390625 0
0.0585938 0.00390625 0
0.0625 0.00390625 0
0.0664062 0.00390625 0
0.0703125 0.00390625 0
0.0742188 0.00390625 0
0.078125 0.00390625 0
0.0820312 0.00390625 0
0.0859375 0.00390625 0
0.0898438 0.00390625 0
0.09375 0.00390625 0
0.0976562 0.00390625 0
0.101562 0.00390625 0
0.105469 0.00390625 0
0.109375 0.00390625 0
0.113281 0.00390625 0
0.117188 0.00390625 0
0.121094 0.00390625 0
0.125 0.00390625 0
0.128906 0.00390625 0
0.132812 0.00390625 0
0.136719 0.00390625 0
0.140625 0.00390625 0
0.144531 0.00390625 0
0.148438 0.00390625 0
0.152344 0.00390625 0
0.15625 0.00390625 0
0.160156 0.00390625 0
0.164062 0.00390625 0
0.167969 0.00390625 0
0.171875 0.00390625 0
0.175781 0.00390625 0
0.179688 0.00390625 0
0.183594 0.00390625 0
0.1875 0.00390625 0
0.191406 0.00390625 0
0.195312 0.00390625 0
0.199219 0.00390625 0
0.203125 0.00390625 0
0.207031 0.00390625 0
0.210938 0.00390625 0
0.214844 0.00390625 0
0.21875 0.00390625 0
0.222656 0.00390625 0
0.226562 0.00390625 0
0.230469 0.00390625 0
0.234375 0.00390625 0
0.238281 0.00390625 0
0.242188 0.00390625 0
0.246094 0.00390625 0
0.25 0.00390625 0
0 0.0078125 0
0.00390625 0.0078125 0
0.0078125 0.0078125 0
0.0117188 0.0078125 0
0.015625 0.0078125 0
0.0195312 0.0078125 0
0.0234375 0.0078125 0
0.0273438 0.0078125 0
0.03125 0.0078125 0
0.0351562 0.0078125 0
0.0390625 0.0078125 0
0.0429688 0.0078125 0
0.046875 0.0078125 0
0.0507812 0.0078125 0
0.0546875 0.0078125 0
0.0585938 0.0078125 0
0.0625 0.0078125 0
0.0664062 0.0078125 0
0.0703125 0.0078125 0
0.0742188 0.0078125 0
0.078125 0.0078125 0
0.0820312 0.0078125 0
0.0859375 0.0078125 0
0.0898438 0.0078125 0
0.09375 0.0078125 0
0.0976562 0.0078125 0
0.101562 0.0078125 0
0.105469 0.0078125 0
0.109375 0.0078125 0
0.113281 0.0078125 0
0.117188 0.0078125 0
0.121094 0.0078125 0
0.125 0.0078125 0
0.128906 0.0078125 0
0.132812 0.0078125 0
0.136719 0.0078125 0
0.140625 0.0078125 0
0.144531 0.0078125 0
0.148438 0.0078125 0
0.152344 0.0078125 0
0.15625 0.0078125 0
0.160156 0.0078125 0
0.164062 0.0078125 0
0.167969 0.0078125 0
0.171875 0.0078125 0
0.175781 0.0078125 0
0.179688 0.0078125 0
0.183594 0.0078125 0
0.1875 0.0078125 0
0.191406 0.0078125 0
0.195312 0.0078125 0
0.199219 0.0078125 0
0.203125 0.0078125 0
0.207031 0.0078125 0
0.210938 0.0078125 0
0.214844 0.0078125 0
0.21875 0.0078125 0
0.222656 0.0078125 0
0.226562 0.0078125 0
0.230469 0.0078125 0
0.234375 0.0078125 0
0.238281 0.0078125 0
0.242188 0.0078125 0
0.246094 0.0078125 0
0.25 0.0078125 0
0 0.0117188 0
0.00390625 0.0117188 0
0.0078125 0.0117188 0
0.0117188 0.0117188 0
0.015625 0.0117188 0
0.0195312 0.0117188 0
0.0234375 0.0117188 0
0.0273438 0.0117188 0
0.03125 0.0117188 0
0.0351562 0.0117188 0
0.0390625 0.0117188 0
0.0429688 0.0117188 0
0.046875 0.0117188 0
0.0507812 0.0117188 0
0.0546875 0.0117188 0
0.0585938 0.0117188 0
0.0625 0.0117188 0
0.0664062 0.0117188 0
0.0703125 0.0117188 0
0.0742188 0.0117188 0
0.078125 0.0117188 0
0.0820312 0.0117188 0
0.0859375 0.0117188 0
0.0898438 0.0117188 0
0.09375 0.0117188 0
0.0976562 0.0117188 0
0.101562 0.0117188 0
0.105469 0.0117188 0
0.109375 0.0117188 0
0.113281 0.0117188 0
0.117188 0.0117188 0
0.121094 0.0117188 0
0.125 0.0117188 0
0.128906 0.0117188 0
0.132812 0.0117188 0
0.136719 0.0117188 0
0.140625 0.0117188 0
0.144531 0.0117188 0
0.148438 0.0117188 0
0.152344 0.0117188 0
0.15625 0.0117188 0
0.160156 0.0117188 0
0.164062 0.0117188 0
0.167969 0.0117188 0
0.171875 0.0117188 0
0.175781 0.0117188 0
0.179688 0.0117188 0
0.183594 0.0117188 0
0.1875 0.0117188 0
0.191406 0.0117188 0
0.195312 0.0117188 0
0.199219 0.0117188 0
0.203125 0.0117188 0
0.207031 0.0117188 0
0.210938 0.0117188 0
0.214844 0.0117188 0
0.21875 0.0117188 0
0.222656 0.0117188 0
0.226562 0.0117188 0
0.230469 0.0117188 0
0.234375 0.0117188 0
0.238281 0.0117188 0
0.242188 0.0117188 0
0.246094 0.0117188 0
0.25 0.0117188 0
0 0.015625 0
0.00390625 0.015625 0
0.0078125 0.015625 0
0.0117188 0.015625 0
0.015625 0.015625 0
0.0195312 0.015625 0
0.0234375 0.015625 0
0.0273438 0.015625 0
0.03125 0.015625 0
0.0351562 0.015625 0
0.0390625 0.015625 0
0.0429688 0.015625 0
0.046875 0.015625 0
0.0507812 0.015625 0
0.0546875 0.015625 0
0.0585938 0.015625 0
0.0625 0.015625 0
0.0664062 0.015625 0
0.0703125 0.015625 0
0.0742188 0.015625 0
0.078125 0.015625 0
0.0820312 0.015625 0
0.0859375 0.015625 0
0.0898438 0.015625 0
0.09375 0.015625 0
0.0976562 0.015625 0
0.101562 0.015625 0
0.105469 0.015625 0
0.109375 0.015625 0
0.113281 0.015625 0
0.117188 0.015625 0
0.121094 0.015625 0
0.125 0.015625 0
0.128906 0.015625 0
0.132812 0.015625 0
0.136719 0.015625 0
0.140625 0.015625 0
0.144531 0.015625 0
0.148438 0.015625 0
0.152344 0.015625 0
0.15625 0.015625 0
0.160156 0.015625 0
0.164062 0.015625 0
0.167969 0.015625 0
0.171875 0.015625 0
0.175781 0.015625 0
0.179688 0.015625 0
0.183594 0.015625 0
0.1875 0.015625 0
0.191406 0.015625 0
0.195312 0.015625 0
0.199219 0.015625 0
0.203125 0.015625 0
0.207031 0.015625 0
0.210938 0.015625 0
0.214844 0.015625 0
0.21875 0.015625 0
0.222656 0.015625 0
0.226562 0.015625 0
0.230469 0.015625 0
0.234375 0.015625 0
0.238281 0.015625 0
0.242188 0.015625 0
0.246094 0.015625 0
0.25 0.015625 0
0 0.0195312 0
0.00390625 0.0195312 0
0.0078125 0.0195312 0
0.0117188 0.0195312 0
0.015625 0.0195312 0
0.0195312 0.0195312 0
0.0234375 0.0195312 0
0.0273438 0.0195312 0
0.03125 0.0195312 0
0.0351562 0.0195312 0
0.0390625 0.0195312 0
0.0429688 0.0195312 0
0.046875 0.0195312 0
0.0507812 0.0195312 0
0.0546875 0.0195312 0
0.0585938 0.0195312 0
0.0625 0.0195312 0
0.0664062 0.0195312 0
0.0703125 0.0195312 0
0.0742188 0.0195312 0
0.078125 0.0195312 0
0.0820312 0.0195312 0
0.0859375 0.0195312 0
0.0898438 0.0195312 0
0.09375 0.0195312 0
0.0976562 0.0195312 0
0.101562 0.0195312 0
0.105469 0.0195312 0
0.109375 0.0195312 0
0.113281 0.0195312 0
0.117188 0.0195312 0
0.121094 0.0195312 0
0.125 0.0195312 0
0.128906 0.0195312 0
0.132812 0.0195312 0
0.136719 0.0195312 0
0.140625 0.0195312 0
0.144531 0.0195312 0
0.148438 0.0195312 0
0.152344 0.0195312 0
0.15625 0.0195312 0
0.160156 0.0195312 0
0.164062 0.0195312 0
0.167969 0.0195312 0
0.171875 0.0195312 0
0.175781 0.0195312 0
0.179688 0.0195312 0
0.183594 0.0195312 0
0.1875 0.0195312 0
0.191406 0.0195312 0
0.195312 0.0195312 0
0.199219 0.0195312 0
0.203125 0.0195312 0
0.207031 0.0195312 0
0.210938 0.0195312 0
0.214844 0.0195312 0
0.21875 0.0195312 0
0.222656 0.0195312 0
0.226562 0.0195312 0
0.230469 0.0195312 0
0.234375 0.0195312 0
0.238281 0.0195312 0
0.242188 0.0195312 0
0.246094 0.0195312 0
0.25 0.0195312 0
0 0.0234375 0
0.00390625 0.0234375 0
0.0078125 0.0234375 0
0.0117188 0.0234375 0
0.015625 0.0234375 0
0.0195312 0.0234375 0
0.0234375 0.0234375 0
0.0273438 0.0234375 0
0.03125 0.0234375 0
0.0351562 0.0234375 0
0.0390625 0.0234375 0
0.0429688 0.0234375 0
0.046875 0.0234375 0
0.0507812 0.0234375 0
0.0546875 0.0234375 0
0.0585938 0.0234375 0
0.0625 0.0234375 0
0.0664062 0.0234375 0
0.0703125 0.0234375 0
0.0742188 0.0234375 0
0.078125 0.0234375 0
0.0820312 0.0234375 0
0.0859375 0.0234375 0
0.0898438 0.0234375 0
0.09375 0.0234375 0
0.0976562 0.0234375 0
0.101562 0.0234375 0
0.105469 0.0234375 0
0.109375 0.0234375 0
0.113281 0.0234375 0
0.117188 0.0234375 0
0.121094 0.0234375 0
0.125 0.0234375 0
0.128906 0.0234375 0
0.132812 0.0234375 0
0.136719 0.0234375 0
0.140625 0.0234375 0
0.144531 0.0234375 0
0.148438 0.0234375 0
0.152344 0.0234375 0
0.15625 0.0234375 0
0.160156 0.0234375 0
0.164062 0.0234375 0
0.167969 0.0234375 0
0.171875 0.0234375 0
0.175781 0.0234375 0
0.179688 0.0234375 0
0.183594 0.0234375 0
0.1875 0.0234375 0
0.191406 0.0234375 0
0.195312 0.0234375 0
0.199219 0.0234375 0
0.203125 0.0234375 0
0.207031 0.0234375 0
0.210938 0.0234375 0
0.214844 0.0234375 0
0.21875 0.0234375 0
0.222656 0.0234375 0
0.226562 0.0234375 0
0.230469 0.0234375 0
0.234375 0.0234375 0
0.238281 0.0234375 0
0.242188 0.0234375 0
0.246094 0.0234375 0
0.25 0.0234375 0
0 0.0273438 0
0.00390625 0.0273438 0
0.0078125 0.0273438 0
0.0117188 0.0273438 0
0.015625 0.0273438 0
0.0195312 0.0273438 0
0.0234375 0.0273438 0
0.0273438 0.0273438 0
0.03125 0.0273438 0
0.0351562 0.0273438 0
0.0390625 0.0273438 0
0.0429688 0.0273438 0
0.046875 0.0273438 0
0.0507812 0.0273438 0
0.0546875 0.0273438 0
0.0585938 0.0273438 0
0.0625 0.0273438 0
0.0664062 0.0273438 0
0.0703125 0.0273438 0
0.0742188 0.0273438 0
0.078125 0.0273438 0
0.0820312 0.0273438 0
0.0859375 0.0273438 0
0.0898438 0.0273438 0
0.09375 0.0273438 0
0.0976562 0.0273438 0
0.101562 0.0273438 0
0.105469 0.0273438 0
0.109375 0.0273438 0
0.113281 0.0273438 0
0.117188 0.0273438 0
0.121094 0.0273438 0
0.125 0.0273438 0
0.128906 0.0273438 0
0.132812 0.0273438 0
0.136719 0.0273438 0
0.140625 0.0273438 0
0.144531 0.0273438 0
0.148438 0.0273438 0
[...]
CELL_DATA 16384
SCALARS solution double
LOOKUP_TABLE default
2.08587
2.08568
2.08544
2.08516
2.0848
2.08451
2.08399
2.08354
2.08317
2.08225
2.08166
2.08166
2.08188
2.08229
2.08141
2.08047
2.07934
2.07785
2.07688
2.07631
2.07577
2.07545
2.07543
2.0749
2.07422
2.07371
2.07337
2.07298
2.07433
2.07615
2.07671
2.07673
2.07654
2.07608
2.0755
2.07489
2.07438
2.07419
2.07411
2.07437
2.07472
2.07522
2.07557
2.0758
2.07605
2.07685
2.07859
2.08008
2.08155
2.08261
2.08326
2.08346
2.08326
2.08316
2.08327
2.0835
2.08412
2.08475
2.08505
2.08528
2.08552
2.08583
2.08592
2.08594
2.00103
2.00083
2.00064
2.00043
2.00043
2.00041
2.00062
2.00074
2.00049
2.00105
2.00296
2.00542
2.00831
2.01275
2.01811
2.02389
2.02979
2.03419
2.03901
2.04382
2.04711
2.05134
2.05596
2.06066
2.06597
2.07163
2.07473
2.07447
2.0769
2.08021
2.08101
2.08052
2.0797
2.07857
2.07748
2.07654
2.07527
2.07413
2.0714
2.0661
2.06022
2.05373
2.04832
2.04495
2.04128
2.03694
2.03346
2.02797
2.02158
2.01603
2.01154
2.00848
2.00669
2.00497
2.00338
2.00195
2.00074
2.00046
2.00065
2.00087
2.00098
2.00107
2.00116
2.00116
1.92286
1.92269
1.92255
1.92249
1.92253
1.92272
1.923
1.92328
1.92366
1.9253
1.92904
1.93291
1.93698
1.943
1.94982
1.95614
1.96321
1.97134
1.97849
1.98335
1.99071
2.00148
2.01107
2.01957
2.02891
2.03937
2.04728
2.05697
2.06594
2.07446
2.08032
2.07987
2.07862
2.07632
2.06987
2.06196
2.0563
2.04989
2.04166
2.03191
2.02127
2.00941
1.99558
1.98597
1.98069
1.97747
1.97044
1.96124
1.95344
1.946
1.94007
1.93564
1.9331
1.93075
1.92813
1.92591
1.92354
1.92234
1.92227
1.92253
1.92277
1.9229
1.92297
1.92299
1.91008
1.91009
1.91003
1.90994
1.90988
1.90988
1.90994
1.91007
1.91122
1.91619
1.92208
1.92714
1.93182
1.93642
1.9407
1.94539
1.9518
1.95943
1.96639
1.97071
1.97597
1.98204
1.98864
1.99622
2.00402
2.01363
2.02309
2.04228
2.05631
2.069
2.08008
2.0796
2.07819
2.07557
2.06438
2.0496
2.04007
2.02982
2.01868
2.00941
1.99969
1.99129
1.98377
1.97669
1.97077
1.96542
1.95767
1.95044
1.94416
1.93862
1.93419
1.9299
1.92628
1.92265
1.9191
1.91605
1.91272
1.91005
1.90916
1.90925
1.90939
1.90962
1.90986
1.90999
1.89832
1.89852
1.89856
1.89849
1.89826
1.89812
1.8981
1.89827
1.90042
1.90787
1.91475
1.92008
1.9249
1.92949
1.93446
1.94056
1.94732
1.95471
1.96194
1.96828
1.97651
1.98491
1.99413
2.00334
2.01168
2.0229
2.0358
2.05518
2.06779
2.0786
2.08789
2.0873
2.08644
2.08523
2.07617
2.0607
2.05011
2.03972
2.02797
2.01758
2.00711
1.9968
1.98702
1.97787
1.96927
1.96132
1.95355
1.94587
1.93863
1.93177
1.92666
1.92244
1.91816
1.91389
1.91002
1.90663
1.90295
1.89939
1.89749
1.89727
1.89725
1.89746
1.89778
1.89805
1.88871
1.88896
1.88907
1.88906
1.8889
1.88873
1.8888
1.88976
1.89448
1.9022
1.90882
1.91386
1.91877
1.92416
1.93026
1.93702
1.94397
1.95195
1.95993
1.96775
1.97721
1.98724
1.99817
2.00855
2.01792
2.0313
2.04678
2.06495
2.0767
2.08832
2.09855
2.09866
2.09803
2.09628
2.08833
2.07121
2.05914
2.0482
2.03528
2.02333
2.01203
2.00074
1.98972
1.97948
1.96932
1.95973
1.95106
1.94253
1.93474
1.92733
1.9214
1.91655
1.91165
1.90695
1.90301
1.89973
1.89612
1.89218
1.88925
1.88798
1.8877
1.88774
1.88804
1.88838
1.879
1.87924
1.87935
1.87944
1.87956
1.87972
1.88019
1.88255
1.88963
1.89697
1.90295
1.90763
1.91286
1.91908
1.92617
1.93368
1.94125
1.95026
1.95869
1.96782
1.9783
1.98931
2.00141
2.01255
2.02399
2.03874
2.05473
2.07169
2.08261
2.09485
2.10599
2.10703
2.10673
2.1045
2.09738
2.07988
2.06683
2.05494
2.04104
2.02791
2.01579
2.00368
1.99136
1.98017
1.96964
1.95908
1.94935
1.94025
1.93193
1.9239
1.91705
1.91139
1.9056
1.90021
1.8959
1.89246
1.88884
1.88484
1.88122
1.87917
1.8785
1.87836
1.87851
1.87875
1.8714
1.87159
1.87174
1.87186
1.87215
1.87259
1.87365
1.87834
1.88598
1.89289
1.89832
1.90307
1.90908
1.91592
1.92321
1.93125
1.93952
1.94961
1.95878
1.96945
1.98139
1.99311
2.00602
2.0183
2.03227
2.04822
2.063
2.07835
2.08933
2.10213
2.11344
2.11518
2.11533
2.11323
2.1063
2.08859
2.07521
2.06293
2.04875
2.03454
2.02106
2.00786
1.99403
1.98155
1.9704
1.95956
1.94921
1.93973
1.93133
1.92313
1.91579
1.90902
1.90235
1.89631
1.89103
1.88675
1.8828
1.87865
1.87489
1.87224
1.8712
1.87104
1.87108
1.8712
1.86369
1.8639
1.86417
1.86442
1.86477
1.86538
1.86727
1.87382
1.88117
1.88756
1.89301
1.89826
1.90531
1.91301
1.92121
1.93032
1.93975
1.95096
1.96129
1.97319
1.98584
1.9975
2.01021
2.02391
2.03979
2.05625
2.0704
2.08514
2.09708
2.10978
2.12017
2.12209
2.12276
2.12117
2.11492
2.09747
2.08387
2.07075
2.05601
2.04099
2.02628
2.01231
1.99787
1.98464
1.97292
1.96166
1.95051
1.9405
1.93145
1.92272
1.91444
1.90646
1.89891
1.89212
1.88593
1.88079
1.87635
1.87198
1.86798
1.86484
1.86352
1.86342
1.86345
1.86355
1.85754
1.85782
1.85824
1.85865
1.85915
1.85988
1.86294
1.87036
1.8774
1.88351
1.88935
1.89553
1.90357
1.91188
1.92099
1.93096
1.94154
1.9536
1.9648
1.97751
1.99056
2.00217
2.01527
2.03002
2.0469
2.06334
2.07747
2.09295
2.1062
2.11828
2.12722
2.12848
2.12896
2.1283
2.12349
2.10656
2.09249
2.07816
2.06272
2.04731
2.03198
2.01756
2.00263
1.98897
1.97678
1.96477
1.95278
1.9419
1.93155
1.92185
1.91275
1.9042
1.89638
1.88908
1.88216
1.87628
1.87141
1.86681
1.86244
1.8589
1.85727
1.85712
1.8572
1.85738
1.85182
1.85209
1.85245
1.85284
1.85338
1.85429
1.85881
1.86642
1.87344
1.87976
1.88609
1.89339
1.90252
1.91154
1.92152
1.93227
1.9437
1.95631
1.96795
1.98113
1.99419
2.00632
2.02056
2.03655
2.05366
2.07021
2.08447
2.10028
2.11487
2.12695
2.13501
2.13568
2.13568
2.13535
2.13186
2.11527
2.10031
2.08494
2.06912
2.05333
2.03752
2.02297
2.00767
1.99343
1.98054
1.9677
1.95502
1.94316
1.93168
1.92107
1.91126
1.90212
1.89382
1.88594
1.8784
1.8719
1.86674
1.86201
1.85748
1.8537
1.85172
1.85136
1.85145
1.85163
1.84789
1.84803
1.84813
1.84839
1.84893
1.85036
1.85613
1.86404
1.87101
1.87742
1.88401
1.89204
1.90161
1.91112
1.92186
1.93326
1.94526
1.95831
1.97015
1.98397
1.99717
2.01029
2.02571
2.04248
2.0596
2.07641
2.0917
2.1077
2.12294
2.13517
2.14312
2.14384
2.14363
2.1428
2.1396
2.1236
2.10762
2.09165
2.07524
2.05931
2.04331
2.02827
2.0125
1.99749
1.98375
1.96988
1.95658
1.94419
1.93211
1.92088
1.91041
1.90068
1.89194
1.88383
1.87618
1.86967
1.86427
1.85935
1.85476
1.85083
1.84843
1.84774
1.84776
1.84778
1.84409
1.84409
1.84407
1.84429
1.84495
1.84714
1.85418
1.8621
1.86895
1.8755
1.88264
1.89134
1.90104
1.91092
1.92213
1.93375
1.94592
1.95931
1.97158
1.98634
2.00042
2.01508
2.03146
2.04851
2.06559
2.0829
2.09924
2.1152
2.1302
2.14247
2.15083
2.15203
2.15164
2.15041
2.1466
2.13095
2.11473
2.09876
2.08218
2.06607
2.04948
2.03332
2.01666
2.00084
1.9862
1.97149
1.9577
1.9449
1.93258
1.92117
1.91044
1.90033
1.89108
1.88262
1.87478
1.86795
1.86209
1.85694
1.85226
1.84819
1.84539
1.84439
1.84427
1.84412
1.84072
1.84063
1.84058
1.84079
1.84172
1.84484
1.85284
1.86061
1.86734
1.87402
1.88167
1.89071
1.90057
1.91072
1.92224
1.93402
1.9465
1.96043
1.97351
1.98901
2.00417
2.02034
2.03763
2.0554
2.07265
2.08991
2.10667
2.12241
2.13704
2.14916
2.15792
2.15959
2.15921
2.15751
2.15299
2.13679
2.12151
2.10611
2.08948
2.07294
2.05571
2.03845
2.0209
2.00427
1.98881
1.97352
1.9592
1.94588
1.93328
1.92157
1.91047
1.90007
1.89036
1.88153
1.8735
1.86637
1.86024
1.85496
1.85025
1.84605
1.8429
1.84154
1.84121
1.84091
1.83704
1.83697
1.83697
1.83733
1.83844
1.84249
1.85087
1.85868
1.86556
1.87266
1.88101
1.89036
1.9003
1.91065
1.9224
1.93449
1.94755
1.96205
1.97596
1.99202
2.00818
2.02569
2.04362
2.06235
2.07992
2.09699
2.11373
2.12918
2.14359
2.15568
2.16473
2.16666
2.16589
2.16383
2.15785
2.14215
2.12816
2.11329
2.09661
2.07962
2.06197
2.04413
2.02602
2.00875
1.99256
1.97653
1.96149
1.94752
1.93425
1.92185
1.91017
1.89943
1.88935
1.8803
1.87213
1.86475
1.85823
1.85263
1.84768
1.84324
1.83966
1.83797
1.83758
1.83723
1.83393
1.834
1.83416
1.83467
1.8359
1.84069
1.84897
1.85654
1.86337
1.87085
1.87989
1.88966
1.89986
1.91075
1.92294
1.93558
1.94934
1.96425
1.97876
1.99525
2.01252
2.03084
2.04914
2.06853
2.08615
2.103
2.11972
2.13531
2.15001
2.16223
2.17122
2.17299
2.17181
2.16933
2.16315
2.14807
2.13447
2.11982
2.10296
2.08557
2.06776
2.04981
2.03148
2.01386
1.99727
1.98052
1.96441
1.94953
1.9354
1.92247
1.91019
1.8991
1.88868
1.87915
1.87067
1.86294
1.85594
1.8499
1.8446
1.83998
1.83624
1.83442
1.83411
1.83393
1.83125
1.83152
1.83183
1.8324
1.83365
1.8391
1.84717
1.8544
1.86113
1.86907
1.87854
1.88859
1.89945
1.91119
1.92401
1.93737
1.95187
1.96719
1.98209
1.99909
2.0171
2.03563
2.05382
2.07349
2.09101
2.10781
2.12502
2.14146
2.15656
2.16862
2.17704
2.17823
2.17698
2.17479
2.17001
2.15473
2.14022
2.1252
2.10826
2.0907
2.07298
2.05518
2.03679
2.01905
2.002
1.98473
1.96771
1.95207
1.93706
1.92376
1.91104
1.89955
1.88876
1.87858
1.86946
1.86128
1.85385
1.84733
1.84171
1.83693
1.83304
1.83112
1.83095
1.83102
1.82927
1.82966
1.82998
1.83048
1.83171
1.83771
1.84579
1.85269
1.85943
1.86767
1.8774
1.88788
1.89941
1.91203
1.92559
1.93966
1.95491
1.97056
1.986
2.00286
2.0212
2.0399
2.0577
2.07729
2.09518
2.11269
2.13089
2.14795
2.16292
2.17463
2.18221
2.183
2.18238
2.18114
2.17723
2.16172
2.14593
2.13009
2.11287
2.09517
2.07744
2.05955
2.04114
2.02351
2.0062
1.9885
1.97113
1.95499
1.93939
1.92571
1.91254
1.90046
1.88914
1.87843
1.86876
1.86012
1.85228
1.84538
1.83952
1.83461
1.83062
1.82868
1.82859
1.82885
1.82747
1.82789
1.8282
1.82869
1.83015
1.83678
1.84489
1.85163
1.85863
1.86728
1.87725
1.88808
1.90006
1.91324
1.92731
1.94194
1.95783
1.97377
1.98961
2.0063
2.02479
2.04393
2.06134
2.08087
2.09976
2.11854
2.13744
2.15449
2.16877
2.17998
2.18717
2.18797
2.18818
2.18763
2.18416
2.16822
2.15199
2.13547
2.11763
2.09964
2.08162
2.06345
2.04473
2.02705
2.00963
1.99175
1.97438
1.95779
1.94166
1.92759
1.91399
1.90144
1.8897
1.8787
1.86873
1.85982
1.85177
1.84462
1.83848
1.8333
1.82906
1.82695
1.82675
1.827
1.82568
1.82601
1.82625
1.82687
1.82873
1.83595
1.8441
1.85091
1.85847
1.8677
1.87796
1.88907
1.90137
1.91471
1.92892
1.94383
1.95993
1.97603
1.99231
2.00929
2.02825
2.048
2.06577
2.0859
2.10545
2.12498
2.14367
2.16024
2.17383
2.18499
2.19243
2.19353
2.19388
2.19327
2.19008
2.17419
2.15817
2.14155
2.12329
2.10482
2.08614
2.06741
2.04818
2.03024
2.01243
1.99439
1.97705
1.96008
1.94371
1.92917
1.91527
1.90235
1.89027
1.87903
1.86885
1.85983
1.85173
1.84449
1.8382
1.83279
1.82828
1.82582
1.82534
1.82534
1.82403
1.82419
1.82437
1.82507
1.82746
1.83528
1.84342
1.85046
1.85864
1.86836
1.87888
1.89025
1.90272
1.91611
1.93041
1.9455
1.96166
1.97794
1.99483
2.01247
2.03233
2.05315
2.07183
2.09291
2.11241
2.1313
2.149
2.16494
2.17829
2.18989
2.19808
2.19939
2.19926
2.19805
2.19479
2.1796
2.16393
2.1477
2.12949
2.11074
2.09148
2.07204
2.05217
2.03363
2.01515
1.99685
1.9792
1.96207
1.94556
1.93059
1.91637
1.90315
1.89073
1.87924
1.8689
1.85979
1.85163
1.84434
1.83802
1.83246
1.82775
1.82497
1.82412
1.8239
1.82271
1.82279
1.82302
1.82372
1.82648
1.83489
1.84298
1.85016
1.85877
1.86881
1.87949
1.89093
1.90354
1.9171
1.93166
1.94721
1.96378
1.98033
1.99784
2.01614
2.03699
2.05877
2.07821
2.0998
2.11894
2.13694
2.15369
2.16911
2.18257
2.19472
2.20343
2.2048
2.20448
2.20286
2.19906
2.18377
2.16881
2.15339
2.13545
2.11682
2.09702
2.07706
2.05669
2.03744
2.01823
1.99949
1.98143
1.96406
1.9474
1.93199
1.9174
1.90384
1.89117
1.87943
1.86876
1.85928
1.85085
1.84343
1.83708
1.83152
1.82681
1.82388
1.82287
1.82268
1.82213
1.82222
1.82248
1.82328
1.82656
1.83501
1.84296
1.85009
1.85885
1.86885
1.87956
1.89113
1.90397
1.91776
1.9327
1.94883
1.96605
1.98333
2.00157
2.02051
2.04175
2.06328
2.08305
2.10438
2.12339
2.14145
2.15807
2.17348
2.18719
2.19948
2.20808
2.20916
2.20892
2.20739
2.20345
2.18789
2.17323
2.15818
2.14048
2.12213
2.10205
2.0817
2.0609
2.04113
2.02148
2.00246
1.98404
1.96638
1.94935
1.93348
1.91848
1.90454
1.89154
1.8795
1.86849
1.85869
1.84998
1.84242
1.83609
1.83061
1.82599
1.82311
1.82215
1.82208
1.82234
1.82238
1.82259
1.82335
1.82719
1.83558
1.84339
1.85044
1.85908
1.86894
1.87967
1.89147
1.90456
1.91863
1.93397
1.95051
1.96827
1.98627
2.00545
2.02489
2.0457
2.06616
2.08569
2.10667
2.12588
2.14477
2.16226
2.17844
2.19221
2.20422
2.21207
2.21261
2.21246
2.21153
2.20818
2.19249
2.17768
2.16245
2.14448
2.12595
2.10568
2.08526
2.06436
2.04441
2.02459
2.00546
1.98673
1.96877
1.95132
1.93497
1.91952
1.90519
1.89187
1.87955
1.86839
1.85851
1.84975
1.8422
1.83591
1.83049
1.82595
1.8232
1.82236
1.82231
1.82244
1.82247
1.82267
1.82346
1.82771
1.83614
1.84393
1.85106
1.85965
1.86952
1.88036
1.89242
1.90572
1.92008
1.93578
1.95253
1.97035
1.98883
2.00844
2.02825
2.04875
2.0686
2.0879
2.1086
2.12814
2.14784
2.16642
2.18333
2.19702
2.20867
2.21585
2.216
2.21592
2.21542
2.2127
2.19711
2.18229
2.16662
2.14788
2.12896
2.10851
2.08819
2.06751
2.04761
2.02757
2.00831
1.98913
1.97094
1.95307
1.93633
1.92052
1.90588
1.89237
1.88009
1.86902
1.85922
1.8505
1.84294
1.83659
1.83099
1.82623
1.82339
1.82251
1.82241
1.82199
1.82206
1.8223
1.82295
1.82749
1.8361
1.84395
1.85126
1.86012
1.87028
1.88147
1.89391
1.90758
1.92225
1.93817
1.9549
1.97247
1.99096
2.01029
2.03022
2.05105
2.07117
2.09114
2.11208
2.13165
2.15139
2.17035
2.1875
2.20103
2.21259
2.21976
2.21997
2.21986
2.21913
2.21667
2.20124
2.18653
2.17071
2.15148
2.13233
2.11176
2.09152
2.07097
2.05101
2.03075
2.01112
1.99145
1.97281
1.95473
1.93776
1.92179
1.90713
1.89364
1.88139
1.87026
1.86032
1.85144
1.84356
1.83689
1.83097
1.82594
1.82295
1.82204
1.82196
1.82141
1.82149
1.82172
1.82215
1.82694
1.8357
1.84361
1.85114
1.8604
1.87095
1.88255
1.89539
1.90945
1.9245
1.94063
1.95744
1.97488
1.99316
2.01201
2.03193
2.05326
2.07416
2.09543
2.11703
2.1367
2.15595
2.17409
2.19062
2.20402
2.21599
2.2236
2.2241
2.22389
2.22296
2.2201
2.20451
2.19
2.17448
2.15545
2.13661
2.11598
2.09563
2.0748
2.05443
2.0338
2.01387
1.99388
1.97492
1.95675
1.93969
1.92356
1.90881
1.89517
1.88276
1.87138
1.86105
1.85171
1.84341
1.83643
1.8304
1.82527
1.82221
1.82137
1.82136
1.82073
1.82085
1.82108
1.82144
1.82643
1.83538
1.84332
1.85115
1.86086
1.87174
1.88359
1.89668
1.91095
1.92629
1.94259
1.95968
1.97735
1.9957
2.0144
2.03443
2.0561
2.07754
2.09974
2.12174
2.14158
2.16051
2.17783
2.19346
2.20654
2.21881
2.2268
2.22766
2.22756
2.22644
2.22324
2.20717
2.19273
2.17776
2.15911
2.14072
2.12005
2.09959
2.07844
2.05751
2.03649
2.0165
1.99668
1.97755
1.95919
1.94179
1.92536
1.9103
1.89631
1.88344
1.87161
1.86088
1.85123
1.84272
1.83563
1.82959
1.82448
1.82142
1.82064
1.82067
1.82014
1.82029
1.82056
1.82097
1.82616
1.83524
1.84318
1.85131
1.86138
1.87258
1.88464
1.89787
1.91213
1.92753
1.94399
1.9613
1.9795
1.99835
2.01754
2.03814
2.05986
2.08121
2.10328
2.12503
2.14504
2.16398
2.18126
2.19667
2.20955
2.22149
2.22927
2.23025
2.23033
2.22921
2.22619
2.20972
2.1953
2.18067
2.16214
2.14395
2.12339
2.10293
2.08147
2.06026
2.03915
2.01905
1.99922
1.98007
1.96139
1.94362
1.92687
1.91146
1.89704
1.8837
1.87146
1.86044
1.85065
1.84206
1.83496
1.82892
1.82382
1.82077
1.81999
1.82005
1.8201
1.82023
1.82052
1.82094
1.82629
1.83543
1.84328
1.8515
1.86176
1.87319
1.88548
1.89889
1.91321
1.92866
1.94511
1.96256
1.98124
2.0008
2.02074
2.04188
2.06362
2.0847
2.10616
2.12712
2.14688
2.16623
2.18394
2.20015
2.21324
2.22466
2.23179
2.2324
2.23244
2.23146
2.22875
2.2125
2.19807
2.18354
2.16474
2.14635
2.12564
2.10511
2.08359
2.06257
2.04155
2.02124
2.00113
1.98182
1.96301
1.94514
1.92818
1.9125
1.8977
1.88394
1.87138
1.8602
1.85039
1.84185
1.83481
1.82882
1.82375
1.82069
1.81991
1.81997
1.82054
1.82063
1.82101
1.82148
1.82695
1.8361
1.84376
1.8519
1.86212
1.87355
1.88594
1.89961
1.91416
1.9298
1.94637
1.96406
1.98298
2.00296
2.02345
2.04491
2.06653
2.08743
2.10864
2.12905
2.14851
2.16802
2.18621
2.20312
2.21658
2.2279
2.23438
2.23423
2.23395
2.23326
2.23111
2.21561
2.20144
2.18686
2.16738
2.14842
2.1274
2.10682
2.08532
2.06446
2.04322
2.0225
2.00217
1.9827
1.96391
1.94606
1.92907
1.91325
1.89829
1.88442
1.87197
1.86099
1.85132
1.84279
1.83566
1.8296
1.82439
1.8212
1.82036
1.82042
1.82098
1.82118
1.82166
1.82222
1.82788
1.83708
1.84458
1.85261
1.86264
1.87384
1.88619
1.9
1.91482
1.93083
1.94777
1.96579
1.98483
2.00478
2.02529
2.04668
2.0682
2.08928
2.11071
2.13124
2.15085
2.17035
2.1884
2.2053
2.21891
2.23027
2.23645
2.2359
2.23536
2.23493
2.23391
2.21901
2.20475
2.1901
2.17
2.15066
2.12951
2.10885
2.08701
2.06586
2.04425
2.02323
2.00284
1.98327
1.96438
1.94648
1.92959
1.91407
1.89955
1.88613
1.87399
1.86307
1.85325
1.84441
1.83691
1.83056
1.82506
1.82166
1.82075
1.82082
1.82139
1.8217
1.82222
1.82287
1.82876
1.83811
1.84559
1.85368
1.8636
1.87453
1.88672
1.90043
1.9154
1.93176
1.94911
1.96746
1.98652
2.00626
2.02657
2.04784
2.06936
2.09047
2.11223
2.13329
2.1534
2.17302
2.19064
2.20693
2.22009
2.23123
2.23753
2.23756
2.23768
2.2375
2.2368
2.22198
2.2072
2.19264
2.1726
2.15353
2.1325
2.11146
2.08897
2.06741
2.04542
2.02422
2.00367
1.98396
1.96514
1.94743
1.93092
1.9158
1.90155
1.88821
1.87609
1.86504
1.85492
1.84574
1.8379
1.83133
1.82562
1.82204
1.8211
1.82118
1.82186
1.82219
1.82277
1.8235
1.82956
1.83902
1.84658
1.85484
1.8649
1.87582
1.88796
1.9015
1.91637
1.93284
1.95035
1.96874
1.9876
2.00727
2.02769
2.04895
2.07055
2.09159
2.11358
2.13505
2.15551
2.1753
2.19279
2.20848
2.22084
2.23162
2.23841
2.23959
2.24034
2.24015
2.23928
2.22373
2.20875
2.19497
2.17555
2.1569
2.13576
2.11436
2.09143
2.06963
2.04741
2.02594
2.00541
1.98584
1.96734
1.94979
1.93317
1.91776
1.90314
1.8894
1.87693
1.86569
1.85553
1.84636
1.83855
1.83202
1.82627
1.82258
1.82161
1.82169
1.82225
1.82259
1.82318
1.82394
1.83014
1.83959
1.8472
1.85574
1.86606
1.87719
1.88955
1.90314
1.91797
1.93433
1.95157
1.96955
1.98808
2.0078
2.02834
2.04983
2.07175
2.09319
2.11525
2.13673
2.15728
2.17694
2.1944
2.20996
2.22199
2.23301
2.24026
2.24191
2.24269
2.24208
2.24043
2.22431
2.20964
2.19686
2.17821
2.15987
2.13859
2.11709
2.09405
2.07215
2.04996
2.02873
2.00849
1.989
1.97041
1.95238
1.9351
1.91892
1.90372
1.88962
1.87694
1.86564
1.85563
1.84666
1.83895
1.83252
1.82682
1.82312
1.82211
1.82215
1.82278
1.82313
1.82362
1.82432
1.83052
1.83983
1.84739
1.85605
1.86654
1.87799
1.89069
1.90447
1.91942
1.93567
1.95262
1.9703
1.98862
2.00831
2.02881
2.05057
2.07296
2.09497
2.11744
2.13875
2.15889
2.17803
2.19538
2.21143
2.22427
2.23576
2.24286
2.24412
2.24419
2.24275
2.24077
2.22434
2.20973
2.19736
2.17924
2.16143
2.14058
2.11942
2.09645
2.07473
2.05309
2.0322
2.01192
1.99199
1.97255
1.95371
1.93583
1.91926
1.90389
1.88973
1.87698
1.86566
1.85571
1.84687
1.83933
1.83304
1.82743
1.82379
1.82276
1.82274
1.82396
1.82409
1.82438
1.82486
1.83086
1.84003
1.84748
1.85611
1.86653
1.87804
1.8909
1.90488
1.91993
1.9363
1.95342
1.97124
1.98969
2.00955
2.03001
2.05176
2.07424
2.09656
2.11935
2.14086
2.16081
2.17942
2.19658
2.21308
2.22662
2.23831
2.24503
2.24531
2.24465
2.24313
2.24104
2.22462
2.20976
2.19709
2.17873
2.1611
2.14072
2.12051
2.0984
2.07723
2.05607
2.03508
2.01419
1.9935
1.97318
1.95384
1.93587
1.91933
1.90399
1.89
1.87749
1.86642
1.8566
1.84794
1.84062
1.83443
1.82886
1.82531
1.82424
1.82407
1.82522
1.82508
1.8251
1.82536
1.83124
1.84038
1.84778
1.85638
1.86664
1.87804
1.89078
1.90463
1.91976
1.93622
1.95379
1.97223
1.99136
2.01164
2.03223
2.05382
2.07601
2.09798
2.12062
2.14252
2.16286
2.18152
2.1989
2.21521
2.22856
2.2399
2.24568
2.24544
2.24477
2.24357
2.24185
2.22575
2.21055
2.19705
2.17816
2.16038
2.1403
2.12094
2.09994
2.07933
2.05798
2.03633
2.01475
1.99363
1.97319
1.9538
1.93598
1.91977
1.90492
1.89147
1.87941
1.86851
1.85866
1.84989
1.84246
1.83613
1.83049
1.82696
1.82581
1.82549
1.8259
1.82565
1.82555
1.82573
1.8316
1.8409
1.84848
1.8571
1.86729
1.8786
1.89118
1.90486
1.91988
1.93628
1.95405
1.97296
1.99297
2.01375
2.0347
2.05636
2.07831
2.09979
2.12169
2.14358
2.16443
2.18374
2.20137
2.21727
2.22964
2.24
2.24524
2.24512
2.24477
2.24413
2.2432
2.22764
2.21238
2.19838
2.17879
2.16061
2.14054
2.12156
2.10094
2.08018
2.05851
2.03643
2.01458
1.99351
1.97338
1.95454
1.93744
1.92188
1.90742
1.89407
1.88189
1.87069
1.86047
1.85124
1.84346
1.83689
1.8312
1.82768
1.82652
1.82622
1.82592
1.82574
1.82567
1.82595
1.83197
1.84149
1.84938
1.8581
1.86839
1.87977
1.89238
1.9061
1.92104
1.93732
1.95489
1.97372
1.99406
2.01521
2.03663
2.05864
2.08051
2.10166
2.12301
2.14451
2.16543
2.18522
2.20316
2.21859
2.23014
2.23992
2.245
2.24503