# vtk DataFile Version 3.0
vtk output
ASCII
DATASET UNSTRUCTURED_GRID
FIELD FieldData 2
TIME 1 1 double
2.48
CYCLE 1 1 int
124
POINTS 16705 double
0 0 0
0.00390625 0 0
0.0078125 0 0
0.0117188 0 0
0.015625 0 0
0.0195312 0 0
0.0234375 0 0
0.0273438 0 0
0.03125 0 0
0.0351562 0 0
0.0390625 0 0
0.0429688 0 0
0.046875 0 0
0.0507812 0 0
0.0546875 0 0
0.0585938 0 0
0.0625 0 0
0.0664062 0 0
0.0703125 0 0
0.0742188 0 0
0.078125 0 0
0.0820312 0 0
0.0859375 0 0
0.0898438 0 0
0.09375 0 0
0.0976562 0 0
0.101562 0 0
0.105469 0 0
0.109375 0 0
0.113281 0 0
0.117188 0 0
0.121094 0 0
0.125 0 0
0.128906 0 0
0.132812 0 0
0.136719 0 0
0.140625 0 0
0.144531 0 0
0.148438 0 0
0.152344 0 0
0.15625 0 0
0.160156 0 0
0.164062 0 0
0.167969 0 0
0.171875 0 0
0.175781 0 0
0.179688 0 0
0.183594 0 0
0.1875 0 0
0.191406 0 0
0.195312 0 0
0.199219 0 0
0.203125 0 0
0.207031 0 0
0.210938 0 0
0.214844 0 0
0.21875 0 0
0.222656 0 0
0.226562 0 0
0.230469 0 0
0.234375 0 0
0.238281 0 0
0.242188 0 0
0.246094 0 0
0.25 0 0
0 0.00390625 0
0.00390625 0.00390625 0
0.0078125 0.00390625 0
0.0117188 0.00390625 0
0.015625 0.00390625 0
0.0195312 0.00390625 0
0.0234375 0.00390625 0
0.0273438 0.00390625 0
0.03125 0.00390625 0
0.0351562 0.00390625 0
0.0390625 0.00390625 0
0.0429688 0.00390625 0
0.046875 0.00390625 0
0.0507812 0.00390625 0
0.0546875 0.00390625 0
0.0585938 0.00390625 0
0.0625 0.00390625 0
0.0664062 0.00390625 0
0.0703125 0.00390625 0
0.0742188 0.00390625 0
0.078125 0.00390625 0
0.0820312 0.00390625 0
0.0859375 0.00390625 0
0.0898438 0.00390625 0
0.09375 0.00390625 0
0.0976562 0.00390625 0
0.101562 0.00390625 0
0.105469 0.00390625 0
0.109375 0.00390625 0
0.113281 0.00390625 0
0.117188 0.00390625 0
0.121094 0.00390625 0
0.125 0.00390625 0
0.128906 0.00390625 0
0.132812 0.00390625 0
0.136719 0.00390625 0
0.140625 0.00390625 0
0.144531 0.00390625 0
0.148438 0.00390625 0
0.152344 0.00390625 0
0.15625 0.00390625 0
0.160156 0.00390625 0
0.164062 0.00390625 0
0.167969 0.00390625 0
0.171875 0.00390625 0
0.175781 0.00390625 0
0.179688 0.00390625 0
0.183594 0.00390625 0
0.1875 0.00390625 0
0.191406 0.00390625 0
0.195312 0.00390625 0
0.199219 0.00390625 0
0.203125 0.00390625 0
0.207031 0.00390625 0
0.210938 0.00390625 0
0.214844 0.00390625 0
0.21875 0.00390625 0
0.222656 0.00390625 0
0.226562 0.00390625 0
0.230469 0.00390625 0
0.234375 0.00390625 0
0.238281 0.00390625 0
0.242188 0.00390625 0
0.246094 0.00390625 0
0.25 0.00390625 0
0 0.0078125 0
0.00390625 0.0078125 0
0.0078125 0.0078125 0
0.0117188 0.0078125 0
0.015625 0.0078125 0
0.0195312 0.0078125 0
0.0234375 0.0078125 0
0.0273438 0.0078125 0
0.03125 0.0078125 0
0.0351562 0.0078125 0
0.0390625 0.0078125 0
0.0429688 0.0078125 0
0.046875 0.0078125 0
0.0507812 0.0078125 0
0.0546875 0.0078125 0
0.0585938 0.0078125 0
0.0625 0.0078125 0
0.0664062 0.0078125 0
0.0703125 0.0078125 0
0.0742188 0.0078125 0
0.078125 0.0078125 0
0.0820312 0.0078125 0
0.0859375 0.0078125 0
0.0898438 0.0078125 0
0.09375 0.0078125 0
0.0976562 0.0078125 0
0.101562 0.0078125 0
0.105469 0.0078125 0
0.109375 0.0078125 0
0.113281 0.0078125 0
0.117188 0.0078125 0
0.121094 0.0078125 0
0.125 0.0078125 0
0.128906 0.0078125 0
0.132812 0.0078125 0
0.136719 0.0078125 0
0.140625 0.0078125 0
0.144531 0.0078125 0
0.148438 0.0078125 0
0.152344 0.0078125 0
0.15625 0.0078125 0
0.160156 0.0078125 0
0.164062 0.0078125 0
0.167969 0.0078125 0
0.171875 0.0078125 0
0.175781 0.0078125 0
0.179688 0.0078125 0
0.183594 0.0078125 0
0.1875 0.0078125 0
0.191406 0.0078125 0
0.195312 0.0078125 0
0.199219 0.0078125 0
0.203125 0.0078125 0
0.207031 0.0078125 0
0.210938 0.0078125 0
0.214844 0.0078125 0
0.21875 0.0078125 0
0.222656 0.0078125 0
0.226562 0.0078125 0
0.230469 0.0078125 0
0.234375 0.0078125 0
0.238281 0.0078125 0
0.242188 0.0078125 0
0.246094 0.0078125 0
0.25 0.0078125 0
0 0.0117188 0
0.00390625 0.0117188 0
0.0078125 0.0117188 0
0.0117188 0.0117188 0
0.015625 0.0117188 0
0.0195312 0.0117188 0
0.0234375 0.0117188 0
0.0273438 0.0117188 0
0.03125 0.0117188 0
0.0351562 0.0117188 0
0.0390625 0.0117188 0
0.0429688 0.0117188 0
0.046875 0.0117188 0
0.0507812 0.0117188 0
0.0546875 0.0117188 0
0.0585938 0.0117188 0
0.0625 0.0117188 0
0.0664062 0.0117188 0
0.0703125 0.0117188 0
0.0742188 0.0117188 0
0.078125 0.0117188 0
0.0820312 0.0117188 0
0.0859375 0.0117188 0
0.0898438 0.0117188 0
0.09375 0.0117188 0
0.0976562 0.0117188 0
0.101562 0.0117188 0
0.105469 0.0117188 0
0.109375 0.0117188 0
0.113281 0.0117188 0
0.117188 0.0117188 0
0.121094 0.0117188 0
0.125 0.0117188 0
0.128906 0.0117188 0
0.132812 0.0117188 0
0.136719 0.0117188 0
0.140625 0.0117188 0
0.144531 0.0117188 0
0.148438 0.0117188 0
0.152344 0.0117188 0
0.15625 0.0117188 0
0.160156 0.0117188 0
0.164062 0.0117188 0
0.167969 0.0117188 0
0.171875 0.0117188 0
0.175781 0.0117188 0
0.179688 0.0117188 0
0.183594 0.0117188 0
0.1875 0.0117188 0
0.191406 0.0117188 0
0.195312 0.0117188 0
0.199219 0.0117188 0
0.203125 0.0117188 0
0.207031 0.0117188 0
0.210938 0.0117188 0
0.214844 0.0117188 0
0.21875 0.0117188 0
0.222656 0.0117188 0
0.226562 0.0117188 0
0.230469 0.0117188 0
0.234375 0.0117188 0
0.238281 0.0117188 0
0.242188 0.0117188 0
0.246094 0.0117188 0
0.25 0.0117188 0
0 0.015625 0
0.00390625 0.015625 0
0.0078125 0.015625 0
0.0117188 0.015625 0
0.015625 0.015625 0
0.0195312 0.015625 0
0.0234375 0.015625 0
0.0273438 0.015625 0
0.03125 0.015625 0
0.0351562 0.015625 0
0.0390625 0.015625 0
0.0429688 0.015625 0
0.046875 0.015625 0
0.0507812 0.015625 0
0.0546875 0.015625 0
0.0585938 0.015625 0
0.0625 0.015625 0
0.0664062 0.015625 0
0.0703125 0.015625 0
0.0742188 0.015625 0
0.078125 0.015625 0
0.0820312 0.015625 0
0.0859375 0.015625 0
0.0898438 0.015625 0
0.09375 0.015625 0
0.0976562 0.015625 0
0.101562 0.015625 0
0.105469 0.015625 0
0.109375 0.015625 0
0.113281 0.015625 0
0.117188 0.015625 0
0.121094 0.015625 0
0.125 0.015625 0
0.128906 0.015625 0
0.132812 0.015625 0
0.136719 0.015625 0
0.140625 0.015625 0
0.144531 0.015625 0
0.148438 0.015625 0
0.152344 0.015625 0
0.15625 0.015625 0
0.160156 0.015625 0
0.164062 0.015625 0
0.167969 0.015625 0
0.171875 0.015625 0
0.175781 0.015625 0
0.179688 0.015625 0
0.183594 0.015625 0
0.1875 0.015625 0
0.191406 0.015625 0
0.195312 0.015625 0
0.199219 0.015625 0
0.203125 0.015625 0
0.207031 0.015625 0
0.210938 0.015625 0
0.214844 0.015625 0
0.21875 0.015625 0
0.222656 0.015625 0
0.226562 0.015625 0
0.230469 0.015625 0
0.234375 0.015625 0
0.238281 0.015625 0
0.242188 0.015625 0
0.246094 0.015625 0
0.25 0.015625 0
0 0.0195312 0
0.00390625 0.0195312 0
0.0078125 0.0195312 0
0.0117188 0.0195312 0
0.015625 0.0195312 0
0.0195312 0.0195312 0
0.0234375 0.0195312 0
0.0273438 0.0195312 0
0.03125 0.0195312 0
0.0351562 0.0195312 0
0.0390625 0.0195312 0
0.0429688 0.0195312 0
0.046875 0.0195312 0
0.0507812 0.0195312 0
0.0546875 0.0195312 0
0.0585938 0.0195312 0
0.0625 0.0195312 0
0.0664062 0.0195312 0
0.0703125 0.0195312 0
0.0742188 0.0195312 0
0.078125 0.0195312 0
0.0820312 0.0195312 0
0.0859375 0.0195312 0
0.0898438 0.0195312 0
0.09375 0.0195312 0
0.0976562 0.0195312 0
0.101562 0.0195312 0
0.105469 0.0195312 0
0.109375 0.0195312 0
0.113281 0.0195312 0
0.117188 0.0195312 0
0.121094 0.0195312 0
0.125 0.0195312 0
0.128906 0.0195312 0
0.132812 0.0195312 0
0.136719 0.0195312 0
0.140625 0.0195312 0
0.144531 0.0195312 0
0.148438 0.0195312 0
0.152344 0.0195312 0
0.15625 0.0195312 0
0.160156 0.0195312 0
0.164062 0.0195312 0
0.167969 0.0195312 0
0.171875 0.0195312 0
0.175781 0.0195312 0
0.179688 0.0195312 0
0.183594 0.0195312 0
0.1875 0.0195312 0
0.191406 0.0195312 0
0.195312 0.0195312 0
0.199219 0.0195312 0
0.203125 0.0195312 0
0.207031 0.0195312 0
0.210938 0.0195312 0
0.214844 0.0195312 0
0.21875 0.0195312 0
0.222656 0.0195312 0
0.226562 0.0195312 0
0.230469 0.0195312 0
0.234375 0.0195312 0
0.238281 0.0195312 0
0.242188 0.0195312 0
0.246094 0.0195312 0
0.25 0.0195312 0
0 0.0234375 0
0.00390625 0.0234375 0
0.0078125 0.0234375 0
0.0117188 0.0234375 0
0.015625 0.0234375 0
0.0195312 0.0234375 0
0.0234375 0.0234375 0
0.0273438 0.0234375 0
0.03125 0.0234375 0
0.0351562 0.0234375 0
0.0390625 0.0234375 0
0.0429688 0.0234375 0
0.046875 0.0234375 0
0.0507812 0.0234375 0
0.0546875 0.0234375 0
0.0585938 0.0234375 0
0.0625 0.0234375 0
0.0664062 0.0234375 0
0.0703125 0.0234375 0
0.0742188 0.0234375 0
0.078125 0.0234375 0
0.0820312 0.0234375 0
0.0859375 0.0234375 0
0.0898438 0.0234375 0
0.09375 0.0234375 0
0.0976562 0.0234375 0
0.101562 0.0234375 0
0.105469 0.0234375 0
0.109375 0.0234375 0
0.113281 0.0234375 0
0.117188 0.0234375 0
0.121094 0.0234375 0
0.125 0.0234375 0
0.128906 0.0234375 0
0.132812 0.0234375 0
0.136719 0.0234375 0
0.140625 0.0234375 0
0.144531 0.0234375 0
0.148438 0.0234375 0
0.152344 0.0234375 0
0.15625 0.0234375 0
0.160156 0.0234375 0
0.164062 0.0234375 0
0.167969 0.0234375 0
0.171875 0.0234375 0
0.175781 0.0234375 0
0.179688 0.0234375 0
0.183594 0.0234375 0
0.1875 0.0234375 0
0.191406 0.0234375 0
0.195312 0.0234375 0
0.199219 0.0234375 0
0.203125 0.0234375 0
0.207031 0.0234375 0
0.210938 0.0234375 0
0.214844 0.0234375 0
0.21875 0.0234375 0
0.222656 0.0234375 0
0.226562 0.0234375 0
0.230469 0.0234375 0
0.234375 0.0234375 0
0.238281 0.0234375 0
0.242188 0.0234375 0
0.246094 0.0234375 0
0.25 0.0234375 0
0 0.0273438 0
0.00390625 0.0273438 0
0.0078125 0.0273438 0
0.0117188 0.0273438 0
0.015625 0.0273438 0
0.0195312 0.0273438 0
0.0234375 0.0273438 0
0.0273438 0.0273438 0
0.03125 0.0273438 0
0.0351562 0.0273438 0
0.0390625 0.0273438 0
0.0429688 0.0273438 0
0.046875 0.0273438 0
0.0507812 0.0273438 0
0.0546875 0.0273438 0
0.0585938 0.0273438 0
0.0625 0.0273438 0
0.0664062 0.0273438 0
0.0703125 0.0273438 0
0.0742188 0.0273438 0
0.078125 0.0273438 0
0.0820312 0.0273438 0
0.0859375 0.0273438 0
0.0898438 0.0273438 0
0.09375 0.0273438 0
0.0976562 0.0273438 0
0.101562 0.0273438 0
0.105469 0.0273438 0
0.109375 0.0273438 0
0.113281 0.0273438 0
0.117188 0.0273438 0
0.121094 0.0273438 0
0.125 0.0273438 0
0.128906 0.0273438 0
0.132812 0.0273438 0
0.136719 0.0273438 0
0.140625 0.0273438 0
0.144531 0.0273438 0
0.148438 0.0273438 0
[...]
CELL_DATA 16384
SCALARS solution double
LOOKUP_TABLE default
2.09738
2.09722
2.09722
2.09768
2.09779
2.09783
2.09771
2.0976
2.09683
2.09612
2.09512
2.09452
2.09498
2.0954
2.09431
2.09261
2.09178
2.09074
2.08997
2.08859
2.08777
2.08653
2.08577
2.08557
2.0872
2.08961
2.09208
2.09535
2.09709
2.09978
2.10318
2.10353
2.10221
2.10174
2.09886
2.09544
2.09418
2.09269
2.09112
2.08989
2.08901
2.08845
2.08794
2.0868
2.08601
2.0861
2.08719
2.08932
2.09219
2.0952
2.0956
2.09624
2.09756
2.09792
2.09774
2.0979
2.09846
2.09921
2.09988
2.10011
2.09983
2.09924
2.09874
2.09821
1.95106
1.95126
1.95117
1.95145
1.95135
1.95101
1.9498
1.94851
1.9473
1.94687
1.94687
1.94743
1.94719
1.94745
1.94748
1.94802
1.95156
1.95658
1.96205
1.96807
1.97515
1.98171
1.98567
1.98763
1.99054
1.99931
2.00917
2.0234
2.03877
2.05481
2.08775
2.10648
2.09846
2.09019
2.06734
2.04182
2.03041
2.01594
2.00304
1.99631
1.99348
1.98965
1.98334
1.97336
1.96441
1.95674
1.94823
1.9434
1.94322
1.94491
1.94965
1.95253
1.95358
1.95326
1.9507
1.94932
1.94911
1.94928
1.94939
1.94985
1.95032
1.95049
1.95097
1.95119
1.82027
1.82063
1.82093
1.81986
1.81898
1.81845
1.81672
1.8145
1.81334
1.81344
1.81342
1.81256
1.81095
1.81079
1.81257
1.81761
1.82568
1.83643
1.84801
1.8617
1.87552
1.88819
1.89674
1.90102
1.90514
1.91774
1.93264
1.95433
1.98319
2.01329
2.06914
2.10773
2.09365
2.07706
2.03878
1.99364
1.96854
1.94116
1.91833
1.90658
1.90162
1.89564
1.88656
1.87097
1.85548
1.84229
1.82605
1.81438
1.81036
1.81064
1.81662
1.8199
1.81912
1.81937
1.81673
1.81423
1.8138
1.81378
1.81374
1.81387
1.81518
1.81707
1.81868
1.81961
1.82842
1.82865
1.82834
1.82829
1.82753
1.82647
1.82375
1.82007
1.81776
1.81755
1.81946
1.82468
1.82972
1.83448
1.83939
1.84607
1.85397
1.86267
1.8712
1.8811
1.89182
1.90374
1.91566
1.92579
1.93524
1.94965
1.96393
1.98122
2.00705
2.04273
2.08409
2.10422
2.0943
2.07783
2.0458
2.01358
1.99342
1.96975
1.94771
1.93379
1.92296
1.91242
1.90417
1.89254
1.88067
1.87098
1.85955
1.84966
1.84262
1.83736
1.83484
1.83209
1.82881
1.8257
1.82204
1.81958
1.81942
1.81914
1.81928
1.82081
1.82296
1.82467
1.82638
1.82764
1.81292
1.81303
1.81327
1.81381
1.81383
1.81327
1.81166
1.81028
1.80996
1.81314
1.82051
1.82927
1.83839
1.84628
1.8529
1.85997
1.86762
1.87531
1.88354
1.89244
1.90298
1.91366
1.9257
1.93889
1.95381
1.97178
1.98797
2.00615
2.03054
2.06731
2.0966
2.10123
2.09979
2.09133
2.06022
2.03525
2.01773
1.99461
1.97261
1.95664
1.94089
1.92668
1.91662
1.90469
1.89387
1.88486
1.87619
1.86772
1.85946
1.85136
1.84405
1.83775
1.83153
1.82613
1.8213
1.81715
1.81356
1.81045
1.80878
1.80851
1.80911
1.81024
1.81143
1.81237
1.79818
1.79823
1.79855
1.7992
1.7996
1.79963
1.79957
1.8
1.8012
1.80743
1.81719
1.82559
1.83326
1.84038
1.84699
1.85454
1.86346
1.8724
1.88357
1.89426
1.90544
1.91708
1.92958
1.94259
1.95921
1.97811
1.99441
2.01473
2.04113
2.07749
2.10619
2.11187
2.11253
2.10923
2.07526
2.04756
2.02565
2.0011
1.97826
1.96177
1.94603
1.93096
1.91949
1.9061
1.89382
1.88377
1.87404
1.86487
1.85602
1.84742
1.83888
1.83132
1.82481
1.81938
1.81511
1.81053
1.8049
1.80013
1.7976
1.79697
1.79694
1.79733
1.7979
1.7982
1.79025
1.79026
1.79022
1.79014
1.79029
1.79075
1.79134
1.79248
1.79658
1.80541
1.81441
1.82216
1.82922
1.83662
1.84374
1.85226
1.86163
1.87146
1.88364
1.89518
1.90761
1.92167
1.93623
1.95062
1.96923
1.98812
2.00491
2.02876
2.05594
2.08957
2.11737
2.12331
2.12332
2.12084
2.08924
2.05766
2.03526
2.01116
1.98864
1.97126
1.95431
1.93714
1.92348
1.9086
1.89501
1.88394
1.87333
1.8631
1.85366
1.84472
1.83567
1.82735
1.81997
1.81326
1.80808
1.80304
1.79761
1.79316
1.79049
1.78978
1.78998
1.79027
1.79033
1.7903
1.78439
1.78458
1.78441
1.78371
1.78321
1.78343
1.78415
1.78601
1.79352
1.80328
1.81156
1.81847
1.82563
1.83392
1.84251
1.8527
1.86299
1.87423
1.88634
1.89796
1.91149
1.9268
1.94358
1.96076
1.97979
1.99858
2.01666
2.0432
2.06979
2.09963
2.12565
2.13227
2.1326
2.13075
2.10003
2.06717
2.04516
2.022
1.99986
1.98124
1.96253
1.94347
1.92848
1.91293
1.89884
1.88608
1.87429
1.86262
1.85216
1.84262
1.83342
1.82489
1.81704
1.80945
1.8032
1.79777
1.79286
1.7888
1.78564
1.78425
1.78405
1.78404
1.78397
1.78409
1.77776
1.77809
1.77821
1.77799
1.77763
1.77764
1.7784
1.78248
1.79197
1.8013
1.80909
1.81556
1.82296
1.83161
1.84096
1.85291
1.86441
1.8773
1.89023
1.90243
1.91657
1.93211
1.94962
1.96831
1.98841
2.00814
2.02788
2.05626
2.08276
2.11063
2.13583
2.14363
2.14314
2.14034
2.10992
2.0782
2.05651
2.03333
2.0105
1.98978
1.96942
1.94947
1.93367
1.91761
1.90308
1.88893
1.87542
1.86183
1.85038
1.84026
1.83117
1.82325
1.81548
1.80768
1.80087
1.79474
1.78967
1.7854
1.78145
1.77891
1.77761
1.77708
1.77698
1.77729
1.77072
1.77104
1.77127
1.77155
1.77178
1.77225
1.7732
1.77945
1.79012
1.79957
1.80756
1.81448
1.82261
1.83162
1.84163
1.85363
1.86542
1.87937
1.89322
1.90678
1.92271
1.93885
1.95615
1.9748
1.9957
2.01652
2.03866
2.06683
2.09209
2.11956
2.14551
2.15405
2.15254
2.14815
2.11968
2.08922
2.0678
2.04377
2.01983
1.99795
1.97684
1.95653
1.93957
1.92242
1.90643
1.89155
1.87729
1.86354
1.85148
1.84091
1.83147
1.82324
1.81521
1.80702
1.79974
1.79298
1.78699
1.78169
1.7763
1.77219
1.77018
1.76953
1.76969
1.77027
1.76614
1.76567
1.76555
1.7658
1.76662
1.76795
1.76989
1.77772
1.78824
1.79708
1.80502
1.81285
1.82225
1.8323
1.84336
1.85536
1.86685
1.88117
1.89545
1.91068
1.92869
1.94597
1.9634
1.98172
2.00303
2.0251
2.04997
2.07721
2.10194
2.12895
2.15444
2.16313
2.16135
2.15652
2.13034
2.10077
2.07907
2.05433
2.02943
2.00629
1.9848
1.96396
1.94546
1.92668
1.90957
1.89484
1.88093
1.8678
1.85547
1.8439
1.83274
1.8229
1.8141
1.80559
1.79787
1.7907
1.78415
1.77805
1.77193
1.76736
1.76555
1.76546
1.76593
1.76626
1.7628
1.76204
1.76168
1.76182
1.76251
1.76403
1.76718
1.77632
1.78609
1.79419
1.80176
1.81027
1.8207
1.83182
1.84384
1.85648
1.86901
1.88436
1.89882
1.91496
1.93418
1.95247
1.97056
1.98961
2.0107
2.03356
2.05973
2.08698
2.11241
2.13907
2.16341
2.1718
2.17022
2.16565
2.14078
2.11117
2.0885
2.06397
2.03898
2.01491
1.99282
1.97148
1.95185
1.93199
1.91416
1.8992
1.8855
1.8718
1.85832
1.8452
1.83275
1.82149
1.81181
1.80301
1.79497
1.78756
1.78104
1.77521
1.7695
1.7651
1.76345
1.76351
1.76363
1.76347
1.75892
1.75842
1.7583
1.75842
1.75897
1.76021
1.76547
1.77572
1.78481
1.79242
1.79978
1.80867
1.81944
1.83093
1.84352
1.85723
1.87175
1.88845
1.90384
1.92048
1.93998
1.95878
1.97796
1.99877
2.02071
2.04333
2.0694
2.09726
2.12355
2.14984
2.17214
2.17948
2.17863
2.17543
2.15161
2.12121
2.09695
2.07309
2.04865
2.02457
2.00161
1.97923
1.95909
1.93897
1.92037
1.90346
1.88823
1.8732
1.85843
1.8446
1.83171
1.81961
1.80935
1.80006
1.79186
1.78454
1.77824
1.77274
1.76745
1.76308
1.76112
1.76064
1.76017
1.75966
1.75503
1.75517
1.75555
1.75578
1.7561
1.75665
1.76317
1.77406
1.78327
1.79129
1.79943
1.80936
1.82049
1.83227
1.84502
1.8593
1.87507
1.89271
1.90893
1.92663
1.94633
1.96517
1.98489
2.00706
2.03065
2.05403
2.08037
2.10773
2.13418
2.16043
2.18074
2.18641
2.18681
2.18514
2.16263
2.13129
2.10515
2.08158
2.05746
2.03314
2.00964
1.98737
1.96696
1.94659
1.92659
1.90714
1.88953
1.87313
1.85802
1.8441
1.83115
1.81884
1.80813
1.7983
1.78964
1.78211
1.77563
1.77011
1.76489
1.76028
1.75751
1.75645
1.75583
1.75535
1.75322
1.75402
1.75478
1.7551
1.755
1.75511
1.76191
1.77247
1.78132
1.7897
1.79872
1.81003
1.82217
1.83498
1.8484
1.86311
1.87898
1.89614
1.91281
1.93165
1.9524
1.97194
1.99204
2.01553
2.04079
2.06563
2.09285
2.11894
2.14422
2.17032
2.18945
2.19414
2.19442
2.19293
2.17386
2.14233
2.11513
2.09057
2.06577
2.04141
2.0182
1.99595
1.97457
1.95314
1.93174
1.91087
1.89163
1.87453
1.85889
1.84488
1.8318
1.81919
1.8079
1.79751
1.78839
1.78062
1.77405
1.76841
1.76297
1.75797
1.75472
1.75345
1.75298
1.75294
1.75253
1.75319
1.75388
1.75432
1.75453
1.75544
1.76321
1.77315
1.78092
1.78868
1.7979
1.81003
1.82296
1.8369
1.85148
1.86708
1.88284
1.8995
1.91658
1.93618
1.95798
1.97863
1.99966
2.0244
2.05082
2.07681
2.10452
2.13034
2.15448
2.17982
2.19886
2.2031
2.20217
2.19941
2.18443
2.15333
2.12567
2.09971
2.07388
2.04979
2.02668
2.00404
1.98116
1.95844
1.93661
1.91619
1.8967
1.87932
1.86288
1.84784
1.83381
1.82052
1.80867
1.79785
1.78835
1.78031
1.77344
1.76738
1.76153
1.75616
1.75266
1.75166
1.75175
1.75206
1.75047
1.75065
1.75086
1.75136
1.75232
1.75464
1.76427
1.77455
1.78248
1.79015
1.79951
1.81137
1.82383
1.83798
1.85316
1.86966
1.88641
1.90398
1.92202
1.94183
1.96393
1.98526
2.00722
2.03346
2.06116
2.08726
2.11479
2.14105
2.16513
2.18961
2.20851
2.21285
2.21101
2.20671
2.19386
2.16261
2.13533
2.10952
2.08354
2.05889
2.03469
2.01122
1.98738
1.96447
1.94312
1.92299
1.90339
1.88532
1.86812
1.85179
1.83671
1.82287
1.8107
1.79975
1.78977
1.78105
1.77328
1.76629
1.75973
1.75388
1.75018
1.74924
1.74967
1.7502
1.74727
1.74728
1.74725
1.74761
1.74872
1.75217
1.7635
1.77458
1.78356
1.79239
1.80288
1.81473
1.82663
1.83992
1.85458
1.87165
1.88969
1.90897
1.92827
1.94877
1.97074
1.99159
2.01484
2.04286
2.07052
2.09646
2.12383
2.15053
2.17572
2.20001
2.21761
2.2217
2.2204
2.21599
2.20282
2.1707
2.1443
2.11983
2.09377
2.0677
2.04169
2.01749
1.994
1.97167
1.95032
1.9298
1.90964
1.89026
1.87254
1.85575
1.84037
1.82637
1.81374
1.80202
1.79116
1.78143
1.77255
1.76469
1.75773
1.75167
1.74769
1.74647
1.74674
1.74706
1.74416
1.74445
1.74463
1.74513
1.74615
1.75071
1.76244
1.77338
1.78279
1.79278
1.80477
1.81732
1.82979
1.84335
1.85783
1.87473
1.89306
1.91353
1.93386
1.9553
1.97768
1.99911
2.02308
2.05151
2.07961
2.10569
2.13291
2.1594
2.18544
2.20956
2.22581
2.22928
2.22855
2.22527
2.21238
2.1799
2.15391
2.12985
2.10302
2.0759
2.04892
2.02476
2.00169
1.97891
1.95661
1.93509
1.91394
1.89396
1.8763
1.85976
1.84444
1.83008
1.81646
1.80364
1.7918
1.78116
1.77149
1.76319
1.75608
1.74984
1.74538
1.74364
1.74357
1.74369
1.74353
1.74406
1.74453
1.74516
1.74603
1.75097
1.7623
1.77258
1.78163
1.7916
1.80417
1.81758
1.8315
1.84663
1.86223
1.87957
1.89784
1.91802
1.93846
1.96051
1.98389
2.00703
2.03219
2.0601
2.08785
2.11464
2.14233
2.16816
2.19362
2.21751
2.23346
2.23645
2.2357
2.23281
2.22202
2.1906
2.16435
2.13903
2.11127
2.08397
2.05731
2.033
2.00897
1.98489
1.96116
1.93867
1.91717
1.89723
1.87951
1.86298
1.84728
1.83225
1.81778
1.80448
1.79214
1.78109
1.77126
1.76316
1.75634
1.74997
1.74521
1.74324
1.74297
1.74298
1.74384
1.74434
1.74493
1.7458
1.74672
1.7527
1.76398
1.77356
1.78174
1.79157
1.80385
1.81743
1.83219
1.84873
1.86591
1.88454
1.90322
1.92312
1.94333
1.96551
1.98991
2.01514
2.04182
2.069
2.09572
2.12285
2.15132
2.17677
2.20094
2.22427
2.24093
2.24437
2.24334
2.23997
2.2301
2.20069
2.17397
2.14745
2.11977
2.09332
2.06706
2.04128
2.01526
1.98993
1.96522
1.94273
1.92146
1.90137
1.88282
1.86532
1.84859
1.83287
1.81819
1.80504
1.79305
1.7824
1.77291
1.7649
1.75799
1.75145
1.74647
1.74437
1.74391
1.7437
1.74343
1.74371
1.74414
1.74505
1.74623
1.75311
1.76486
1.77449
1.78315
1.79349
1.80567
1.81904
1.83378
1.85072
1.86857
1.88815
1.90791
1.92867
1.94927
1.97141
1.9964
2.02287
2.05044
2.07781
2.104
2.13105
2.15938
2.18473
2.20856
2.23114
2.24827
2.25252
2.25137
2.24772
2.23745
2.20834
2.1821
2.15622
2.1292
2.10297
2.07598
2.04859
2.02115
1.99508
1.97042
1.94853
1.92711
1.9061
1.88631
1.86777
1.85018
1.83409
1.81947
1.80661
1.79479
1.784
1.77401
1.76532
1.75791
1.75132
1.74628
1.74428
1.74402
1.74366
1.7427
1.74271
1.74287
1.74357
1.74461
1.75195
1.76418
1.77424
1.78378
1.79526
1.80823
1.82189
1.83688
1.85353
1.87104
1.89084
1.91138
1.93352
1.95551
1.97864
2.00353
2.03012
2.0578
2.08591
2.11286
2.13965
2.16687
2.19199
2.21643
2.23929
2.25566
2.2597
2.25918
2.25552
2.2447
2.21511
2.19019
2.16559
2.13861
2.11133
2.08301
2.05473
2.02736
2.002
1.97761
1.95486
1.93245
1.91032
1.88947
1.87025
1.85225
1.83584
1.82089
1.80761
1.79531
1.78389
1.77326
1.76405
1.75644
1.74984
1.74499
1.74321
1.74319
1.74291
1.7427
1.74274
1.74287
1.7434
1.74424
1.75173
1.76393
1.77403
1.78376
1.79595
1.80969
1.82413
1.83988
1.85682
1.87454
1.89412
1.91468
1.93758
1.96087
1.98581
2.01095
2.03733
2.06495
2.09342
2.12126
2.14839
2.17473
2.19952
2.22462
2.24789
2.26314
2.26594
2.26569
2.26277
2.25237
2.22327
2.19892
2.17466
2.14656
2.11763
2.08866
2.06088
2.03483
2.00992
1.9845
1.96038
1.93678
1.9137
1.89243
1.87298
1.85445
1.8373
1.82151
1.80728
1.79426
1.78266
1.77225
1.76335
1.75608
1.74946
1.74436
1.74246
1.74244
1.74256
1.74237
1.74272
1.74318
1.74409
1.74547
1.75349
1.76553
1.77525
1.78484
1.79712
1.81079
1.82542
1.84172
1.85946
1.87814
1.89834
1.91901
1.94145
1.96503
1.99122
2.0178
2.04505
2.07262
2.10048
2.12842
2.15664
2.18296
2.208
2.2327
2.2555
2.2702
2.27171
2.27109
2.26888
2.261
2.2327
2.20774
2.18197
2.15278
2.12312
2.09464
2.06847
2.04291
2.01732
1.99056
1.96504
1.94043
1.91705
1.89529
1.87551
1.85641
1.83854
1.822
1.80724
1.79406
1.78281
1.77308
1.76462
1.75748
1.75065
1.74494
1.74236
1.74198
1.74207
1.74145
1.74174
1.74229
1.74357
1.74547
1.75423
1.76709
1.77727
1.78726
1.79951
1.81281
1.82704
1.8432
1.86095
1.88058
1.90173
1.92345
1.94592
1.96928
1.99555
2.0232
2.05199
2.07969
2.1067
2.13457
2.16373
2.19126
2.21699
2.2403
2.26176
2.27632
2.27767
2.27692
2.27503
2.26924
2.24173
2.21527
2.18781
2.15845
2.12986
2.10287
2.07658
2.04979
2.02305
1.99542
1.96918
1.94425
1.92078
1.89811
1.87778
1.85857
1.84077
1.8244
1.80991
1.79703
1.78596
1.77627
1.76747
1.75954
1.75194
1.74543
1.7422
1.74138
1.7413
1.74138
1.74137
1.74175
1.74296
1.74484
1.75374
1.76683
1.77736
1.78794
1.80094
1.81489
1.82959
1.84581
1.86314
1.88268
1.90426
1.92696
1.95029
1.97436
2.00031
2.02768
2.05707
2.08499
2.11233
2.14066
2.17089
2.19941
2.2253
2.24733
2.26729
2.28132
2.28297
2.28314
2.28178
2.27622
2.24874
2.22116
2.19372
2.1657
2.139
2.11217
2.08431
2.05526
2.02731
1.99963
1.97376
1.9486
1.92484
1.90172
1.88125
1.86234
1.84475
1.8284
1.81385
1.80067
1.78882
1.77796
1.76826
1.75989
1.75198
1.74554
1.74246
1.74162
1.74148
1.74332
1.74315
1.74316
1.74403
1.74547
1.75396
1.76667
1.7769
1.7873
1.80057
1.81531
1.83131
1.84847
1.86623
1.8857
1.90707
1.93013
1.95436
1.97962
2.00576
2.03238
2.06142
2.08957
2.11843
2.14807
2.17858
2.20672
2.23235
2.25386
2.27285
2.28625
2.28826
2.28913
2.28774
2.28195
2.25401
2.22704
2.20137
2.17513
2.14817
2.11999
2.09042
2.05999
2.03136
2.00385
1.97847
1.95315
1.9293
1.90627
1.8857
1.86648
1.84837
1.83139
1.81592
1.80167
1.78883
1.77745
1.76767
1.7596
1.75204
1.74625
1.7439
1.74345
1.7435
1.7459
1.74599
1.74646
1.74737
1.74873
1.75673
1.76865
1.77811
1.7879
1.80066
1.81507
1.83158
1.84978
1.86882
1.88933
1.91111
1.93385
1.95818
1.98436
2.01116
2.03806
2.06688
2.09496
2.12517
2.15588
2.18583
2.21273
2.23825
2.26046
2.27949
2.29248
2.2938
2.29431
2.2925
2.28639
2.25893
2.23423
2.21057
2.18467
2.15616
2.12529
2.09488
2.06449
2.03643
2.00893
1.98308
1.95748
1.93377
1.91048
1.88921
1.869
1.84999
1.83235
1.81638
1.8019
1.7891
1.77785
1.76829
1.76059
1.75359
1.7482
1.746
1.74563
1.74579
1.7458
1.74642
1.74727
1.74853
1.75035
1.75884
1.771
1.78062
1.79037
1.80273
1.81652
1.83231
1.85057
1.87038
1.89222
1.91514
1.9382
1.9623
1.98851
2.01577
2.04399
2.07356
2.1018
2.13228
2.16291
2.19186
2.21815
2.2438
2.26689
2.28706
2.29995
2.29989
2.29927
2.29673
2.29093
2.26492
2.24236
2.21911
2.19191
2.16126
2.12929
2.09953
2.0703
2.04269
2.0142
1.98756
1.96154
1.93742
1.91352
1.89138
1.87039
1.85089
1.83292
1.81697
1.80279
1.79024
1.77906
1.76951
1.76185
1.75458
1.74878
1.7462
1.74547
1.74553
1.74454
1.74522
1.74603
1.7474
1.74937
1.75799
1.77083
1.78141
1.79221
1.80519
1.81935
1.83497
1.85258
1.87185
1.89399
1.91771
1.94182
1.96622
1.9925
2.02004
2.04952
2.08017
2.10907
2.1393
2.16875
2.19751
2.224
2.24982
2.27279
2.29393
2.30729
2.30601
2.30375
2.30159
2.29711
2.27228
2.24969
2.2248
2.19554
2.16474
2.13368
2.10576
2.07685
2.04858
2.01921
1.99176
1.96499
1.9401
1.91562
1.89301
1.87164
1.85226
1.83481
1.81922
1.80508
1.79236
1.78074
1.77056
1.76217
1.75419
1.74794
1.74502
1.74408
1.74416
1.74459
1.74508
1.74567
1.74683
1.74872
1.75726
1.77011
1.78091
1.79208
1.80594
1.8212
1.83758
1.85541
1.87441
1.8958
1.91921
1.944
1.9695
1.99638
2.02436
2.05439
2.08579
2.11535
2.14575
2.17449
2.20351
2.23076
2.25644
2.27857
2.29926
2.31292
2.31174
2.30935
2.30792
2.30427
2.27946
2.25479
2.2272
2.19759
2.16863
2.13981
2.11219
2.0825
2.05352
2.02333
1.99528
1.96793
1.94217
1.91726
1.89487
1.87433
1.85576
1.83861
1.82265
1.80788
1.79451
1.78228
1.77153
1.76265
1.75436
1.74794
1.74505
1.74412
1.7442
1.7472
1.74734
1.74764
1.74851
1.75008
1.75801
1.77039
1.78099
1.7919
1.80593
1.82171
1.83896
1.85778
1.87745
1.89852
1.92114
1.94548
1.97193
2.00007
2.02889
2.05905
2.09005
2.12013
2.15144
2.18029
2.20941
2.23727
2.26318
2.28427
2.30325
2.31657
2.31716
2.31629
2.31473
2.31097
2.28401
2.25749
2.2296
2.20088
2.17433
2.14595
2.11733
2.08624
2.0569
2.02659
1.99839
1.97059
1.94467
1.92026
1.89874
1.87855
1.85973
1.84187
1.82514
1.80975
1.79599
1.7837
1.77304
1.76433
1.75623
1.75011
1.74766
1.7469
1.74697
1.74813
1.74825
1.74868
1.7497
1.75169
1.75994
1.77237
1.78287
1.79332
1.80676
1.82225
1.83974
1.85917
1.87988
1.90182
1.92417
1.94755
1.97407
2.00335
2.03306
2.06299
2.09297
2.1231
2.15556
2.18541
2.21483
2.24251
2.26837
2.28898
2.307
2.32008
2.32188
2.32295
2.32143
2.31549
2.28594
2.26024
2.23449
2.20784
2.18092
2.15073
2.1203
2.08824
2.05923
2.02939
2.0018
1.97457
1.94913
1.92495
1.90299
1.88173
1.8614
1.84278
1.82561
1.81013
1.7968
1.78521
1.77513
1.76673
1.7587
1.75237
1.74947
1.74829
1.74811
1.74732
1.74762
1.74809
1.74933
1.75156
1.7604
1.77369
1.78519
1.7963
1.80946
1.82432
1.84085
1.86001
1.88116
1.90412
1.92735
1.95072
1.97691
2.0055
2.03514
2.06569
2.09567
2.12544
2.15827
2.18915
2.21947
2.24624
2.27193
2.29306
2.31127
2.32459
2.3264
2.32819
2.32611
2.3179
2.28777
2.26493
2.24196
2.21522
2.18668
2.15363
2.12206
2.09014
2.06209
2.03292
2.00579
1.97911
1.95369
1.92855
1.90516
1.88252
1.86154
1.84296
1.82623
1.81127
1.79846
1.78718
1.77709
1.76828
1.75942
1.75242
1.74897
1.74751
1.74727
1.74668
1.74708
1.74774
1.74887
1.75097
1.75939
1.77284
1.78545
1.79767
1.81164
1.82693
1.84305
1.86121
1.88186
1.90504
1.92968
1.95432
1.98049
2.00764
2.03619
2.06726
2.09826
2.1285
2.16097
2.19215
2.22306
2.24931
2.27508
2.29701
2.31649
2.33021
2.33115
2.33139
2.32758
2.31994
2.29232
2.27165
2.2489
2.22069
2.19033
2.15605
2.12492
2.09413
2.06668
2.03724
2.00947
1.98215
1.95595
1.92967
1.9053
1.88259
1.86188
1.84372
1.82759
1.81307
1.80023
1.78848
1.77781
1.76851
1.75921
1.75211
1.7485
1.74685
1.74662
1.74829
1.74845
1.74883
1.74954
1.75107
1.75889
1.7721
1.78484
1.79699
1.81138
1.828
1.845
1.86328
1.88326
1.90604
1.93107
1.95682
1.98382
2.0106
2.03808
2.06911
2.10118
2.13301
2.1649
2.19545
2.22675
2.25334
2.27942
2.3016
2.32203
2.33594
2.33474
2.33201
2.32829
2.3236
2.29896
2.2786
2.25378
2.22286
2.19258
2.1595
2.1302
2.09987
2.07176
2.04111
2.01166
1.98276
1.95584
1.92964
1.9056
1.88339
1.86341
1.84577
1.82978
1.81484
1.80132
1.789
1.77806
1.7689
1.76008
1.75355
1.75022
1.7485
1.74828
1.75221
1.75268
1.75308
1.75353
1.75463
1.76148
1.7739
1.78555
1.79708
1.81129
1.82801
1.84589
1.8652
1.88546
1.90753
1.93177
1.95812
1.98624
2.01407
2.04198
2.07304
2.10504
2.13768
2.16945
2.19937
2.23059
2.25808
2.28483
2.30679
2.32645
2.33937
2.33658
2.33265
2.33062
2.32854
2.30495
2.28341
2.25538
2.2238
2.19536
2.16478
2.13644
2.1051
2.07567
2.04339
2.01263
1.98274
1.95591
1.9306
1.90793
1.88694
1.86726
1.84931
1.83244
1.81653
1.80233
1.78996
1.77954
1.77098
1.7629
1.75685
1.75352
1.75204
1.75206
1.75272
1.75355
1.75451
1.75541
1.75687
1.76334
1.77597
1.78816
1.7993
1.81199
1.82807
1.84583
1.86598
1.88701
1.90918
1.93259
1.95817
1.98713
2.0166
2.0466
2.07778
2.10936
2.14201
2.17366
2.20357
2.23432
2.26192
2.28982
2.31141
2.3285
2.33943
2.33769
2.33545
2.33483
2.33341
2.30884
2.2847
2.25594
2.22574
2.2001
2.17054
2.1414
2.10801
2.07715
2.04437
2.0136
1.98428
1.95843
1.93459
1.91267
1.89144
1.87081
1.85171
1.83401
1.81772
1.80364
1.79174
1.78144
1.77267
1.76432
1.7577
1.75386
1.75237
1.75244
1.75136
1.75235
1.75332
1.75423
1.75602
1.76179
1.77513
1.78851
1.80075
1.81356
1.82897
1.84596
1.86576
1.88719
1.91008
1.93382
1.95867
1.98731
2.01748
2.0496
2.08187
2.11312
2.14508
2.17656
2.20668
2.2373
2.26437
2.29243
2.31406
2.32927
2.33908