# vtk DataFile Version 3.0
vtk output
ASCII
DATASET UNSTRUCTURED_GRID
FIELD FieldData 2
TIME 1 1 double
1.6
CYCLE 1 1 int
80
POINTS 16705 double
0 0 0
0.00390625 0 0
0.0078125 0 0
0.0117188 0 0
0.015625 0 0
0.0195312 0 0
0.0234375 0 0
0.0273438 0 0
0.03125 0 0
0.0351562 0 0
0.0390625 0 0
0.0429688 0 0
0.046875 0 0
0.0507812 0 0
0.0546875 0 0
0.0585938 0 0
0.0625 0 0
0.0664062 0 0
0.0703125 0 0
0.0742188 0 0
0.078125 0 0
0.0820312 0 0
0.0859375 0 0
0.0898438 0 0
0.09375 0 0
0.0976562 0 0
0.101562 0 0
0.105469 0 0
0.109375 0 0
0.113281 0 0
0.117188 0 0
0.121094 0 0
0.125 0 0
0.128906 0 0
0.132812 0 0
0.136719 0 0
0.140625 0 0
0.144531 0 0
0.148438 0 0
0.152344 0 0
0.15625 0 0
0.160156 0 0
0.164062 0 0
0.167969 0 0
0.171875 0 0
0.175781 0 0
0.179688 0 0
0.183594 0 0
0.1875 0 0
0.191406 0 0
0.195312 0 0
0.199219 0 0
0.203125 0 0
0.207031 0 0
0.210938 0 0
0.214844 0 0
0.21875 0 0
0.222656 0 0
0.226562 0 0
0.230469 0 0
0.234375 0 0
0.238281 0 0
0.242188 0 0
0.246094 0 0
0.25 0 0
0 0.00390625 0
0.00390625 0.00390625 0
0.0078125 0.00390625 0
0.0117188 0.00390625 0
0.015625 0.00390625 0
0.0195312 0.00390625 0
0.0234375 0.00390625 0
0.0273438 0.00390625 0
0.03125 0.00390625 0
0.0351562 0.00390625 0
0.0390625 0.00390625 0
0.0429688 0.00390625 0
0.046875 0.00390625 0
0.0507812 0.00390625 0
0.0546875 0.00390625 0
0.0585938 0.00390625 0
0.0625 0.00390625 0
0.0664062 0.00390625 0
0.0703125 0.00390625 0
0.0742188 0.00390625 0
0.078125 0.00390625 0
0.0820312 0.00390625 0
0.0859375 0.00390625 0
0.0898438 0.00390625 0
0.09375 0.00390625 0
0.0976562 0.00390625 0
0.101562 0.00390625 0
0.105469 0.00390625 0
0.109375 0.00390625 0
0.113281 0.00390625 0
0.117188 0.00390625 0
0.121094 0.00390625 0
0.125 0.00390625 0
0.128906 0.00390625 0
0.132812 0.00390625 0
0.136719 0.00390625 0
0.140625 0.00390625 0
0.144531 0.00390625 0
0.148438 0.00390625 0
0.152344 0.00390625 0
0.15625 0.00390625 0
0.160156 0.00390625 0
0.164062 0.00390625 0
0.167969 0.00390625 0
0.171875 0.00390625 0
0.175781 0.00390625 0
0.179688 0.00390625 0
0.183594 0.00390625 0
0.1875 0.00390625 0
0.191406 0.00390625 0
0.195312 0.00390625 0
0.199219 0.00390625 0
0.203125 0.00390625 0
0.207031 0.00390625 0
0.210938 0.00390625 0
0.214844 0.00390625 0
0.21875 0.00390625 0
0.222656 0.00390625 0
0.226562 0.00390625 0
0.230469 0.00390625 0
0.234375 0.00390625 0
0.238281 0.00390625 0
0.242188 0.00390625 0
0.246094 0.00390625 0
0.25 0.00390625 0
0 0.0078125 0
0.00390625 0.0078125 0
0.0078125 0.0078125 0
0.0117188 0.0078125 0
0.015625 0.0078125 0
0.0195312 0.0078125 0
0.0234375 0.0078125 0
0.0273438 0.0078125 0
0.03125 0.0078125 0
0.0351562 0.0078125 0
0.0390625 0.0078125 0
0.0429688 0.0078125 0
0.046875 0.0078125 0
0.0507812 0.0078125 0
0.0546875 0.0078125 0
0.0585938 0.0078125 0
0.0625 0.0078125 0
0.0664062 0.0078125 0
0.0703125 0.0078125 0
0.0742188 0.0078125 0
0.078125 0.0078125 0
0.0820312 0.0078125 0
0.0859375 0.0078125 0
0.0898438 0.0078125 0
0.09375 0.0078125 0
0.0976562 0.0078125 0
0.101562 0.0078125 0
0.105469 0.0078125 0
0.109375 0.0078125 0
0.113281 0.0078125 0
0.117188 0.0078125 0
0.121094 0.0078125 0
0.125 0.0078125 0
0.128906 0.0078125 0
0.132812 0.0078125 0
0.136719 0.0078125 0
0.140625 0.0078125 0
0.144531 0.0078125 0
0.148438 0.0078125 0
0.152344 0.0078125 0
0.15625 0.0078125 0
0.160156 0.0078125 0
0.164062 0.0078125 0
0.167969 0.0078125 0
0.171875 0.0078125 0
0.175781 0.0078125 0
0.179688 0.0078125 0
0.183594 0.0078125 0
0.1875 0.0078125 0
0.191406 0.0078125 0
0.195312 0.0078125 0
0.199219 0.0078125 0
0.203125 0.0078125 0
0.207031 0.0078125 0
0.210938 0.0078125 0
0.214844 0.0078125 0
0.21875 0.0078125 0
0.222656 0.0078125 0
0.226562 0.0078125 0
0.230469 0.0078125 0
0.234375 0.0078125 0
0.238281 0.0078125 0
0.242188 0.0078125 0
0.246094 0.0078125 0
0.25 0.0078125 0
0 0.0117188 0
0.00390625 0.0117188 0
0.0078125 0.0117188 0
0.0117188 0.0117188 0
0.015625 0.0117188 0
0.0195312 0.0117188 0
0.0234375 0.0117188 0
0.0273438 0.0117188 0
0.03125 0.0117188 0
0.0351562 0.0117188 0
0.0390625 0.0117188 0
0.0429688 0.0117188 0
0.046875 0.0117188 0
0.0507812 0.0117188 0
0.0546875 0.0117188 0
0.0585938 0.0117188 0
0.0625 0.0117188 0
0.0664062 0.0117188 0
0.0703125 0.0117188 0
0.0742188 0.0117188 0
0.078125 0.0117188 0
0.0820312 0.0117188 0
0.0859375 0.0117188 0
0.0898438 0.0117188 0
0.09375 0.0117188 0
0.0976562 0.0117188 0
0.101562 0.0117188 0
0.105469 0.0117188 0
0.109375 0.0117188 0
0.113281 0.0117188 0
0.117188 0.0117188 0
0.121094 0.0117188 0
0.125 0.0117188 0
0.128906 0.0117188 0
0.132812 0.0117188 0
0.136719 0.0117188 0
0.140625 0.0117188 0
0.144531 0.0117188 0
0.148438 0.0117188 0
0.152344 0.0117188 0
0.15625 0.0117188 0
0.160156 0.0117188 0
0.164062 0.0117188 0
0.167969 0.0117188 0
0.171875 0.0117188 0
0.175781 0.0117188 0
0.179688 0.0117188 0
0.183594 0.0117188 0
0.1875 0.0117188 0
0.191406 0.0117188 0
0.195312 0.0117188 0
0.199219 0.0117188 0
0.203125 0.0117188 0
0.207031 0.0117188 0
0.210938 0.0117188 0
0.214844 0.0117188 0
0.21875 0.0117188 0
0.222656 0.0117188 0
0.226562 0.0117188 0
0.230469 0.0117188 0
0.234375 0.0117188 0
0.238281 0.0117188 0
0.242188 0.0117188 0
0.246094 0.0117188 0
0.25 0.0117188 0
0 0.015625 0
0.00390625 0.015625 0
0.0078125 0.015625 0
0.0117188 0.015625 0
0.015625 0.015625 0
0.0195312 0.015625 0
0.0234375 0.015625 0
0.0273438 0.015625 0
0.03125 0.015625 0
0.0351562 0.015625 0
0.0390625 0.015625 0
0.0429688 0.015625 0
0.046875 0.015625 0
0.0507812 0.015625 0
0.0546875 0.015625 0
0.0585938 0.015625 0
0.0625 0.015625 0
0.0664062 0.015625 0
0.0703125 0.015625 0
0.0742188 0.015625 0
0.078125 0.015625 0
0.0820312 0.015625 0
0.0859375 0.015625 0
0.0898438 0.015625 0
0.09375 0.015625 0
0.0976562 0.015625 0
0.101562 0.015625 0
0.105469 0.015625 0
0.109375 0.015625 0
0.113281 0.015625 0
0.117188 0.015625 0
0.121094 0.015625 0
0.125 0.015625 0
0.128906 0.015625 0
0.132812 0.015625 0
0.136719 0.015625 0
0.140625 0.015625 0
0.144531 0.015625 0
0.148438 0.015625 0
0.152344 0.015625 0
0.15625 0.015625 0
0.160156 0.015625 0
0.164062 0.015625 0
0.167969 0.015625 0
0.171875 0.015625 0
0.175781 0.015625 0
0.179688 0.015625 0
0.183594 0.015625 0
0.1875 0.015625 0
0.191406 0.015625 0
0.195312 0.015625 0
0.199219 0.015625 0
0.203125 0.015625 0
0.207031 0.015625 0
0.210938 0.015625 0
0.214844 0.015625 0
0.21875 0.015625 0
0.222656 0.015625 0
0.226562 0.015625 0
0.230469 0.015625 0
0.234375 0.015625 0
0.238281 0.015625 0
0.242188 0.015625 0
0.246094 0.015625 0
0.25 0.015625 0
0 0.0195312 0
0.00390625 0.0195312 0
0.0078125 0.0195312 0
0.0117188 0.0195312 0
0.015625 0.0195312 0
0.0195312 0.0195312 0
0.0234375 0.0195312 0
0.0273438 0.0195312 0
0.03125 0.0195312 0
0.0351562 0.0195312 0
0.0390625 0.0195312 0
0.0429688 0.0195312 0
0.046875 0.0195312 0
0.0507812 0.0195312 0
0.0546875 0.0195312 0
0.0585938 0.0195312 0
0.0625 0.0195312 0
0.0664062 0.0195312 0
0.0703125 0.0195312 0
0.0742188 0.0195312 0
0.078125 0.0195312 0
0.0820312 0.0195312 0
0.0859375 0.0195312 0
0.0898438 0.0195312 0
0.09375 0.0195312 0
0.0976562 0.0195312 0
0.101562 0.0195312 0
0.105469 0.0195312 0
0.109375 0.0195312 0
0.113281 0.0195312 0
0.117188 0.0195312 0
0.121094 0.0195312 0
0.125 0.0195312 0
0.128906 0.0195312 0
0.132812 0.0195312 0
0.136719 0.0195312 0
0.140625 0.0195312 0
0.144531 0.0195312 0
0.148438 0.0195312 0
0.152344 0.0195312 0
0.15625 0.0195312 0
0.160156 0.0195312 0
0.164062 0.0195312 0
0.167969 0.0195312 0
0.171875 0.0195312 0
0.175781 0.0195312 0
0.179688 0.0195312 0
0.183594 0.0195312 0
0.1875 0.0195312 0
0.191406 0.0195312 0
0.195312 0.0195312 0
0.199219 0.0195312 0
0.203125 0.0195312 0
0.207031 0.0195312 0
0.210938 0.0195312 0
0.214844 0.0195312 0
0.21875 0.0195312 0
0.222656 0.0195312 0
0.226562 0.0195312 0
0.230469 0.0195312 0
0.234375 0.0195312 0
0.238281 0.0195312 0
0.242188 0.0195312 0
0.246094 0.0195312 0
0.25 0.0195312 0
0 0.0234375 0
0.00390625 0.0234375 0
0.0078125 0.0234375 0
0.0117188 0.0234375 0
0.015625 0.0234375 0
0.0195312 0.0234375 0
0.0234375 0.0234375 0
0.0273438 0.0234375 0
0.03125 0.0234375 0
0.0351562 0.0234375 0
0.0390625 0.0234375 0
0.0429688 0.0234375 0
0.046875 0.0234375 0
0.0507812 0.0234375 0
0.0546875 0.0234375 0
0.0585938 0.0234375 0
0.0625 0.0234375 0
0.0664062 0.0234375 0
0.0703125 0.0234375 0
0.0742188 0.0234375 0
0.078125 0.0234375 0
0.0820312 0.0234375 0
0.0859375 0.0234375 0
0.0898438 0.0234375 0
0.09375 0.0234375 0
0.0976562 0.0234375 0
0.101562 0.0234375 0
0.105469 0.0234375 0
0.109375 0.0234375 0
0.113281 0.0234375 0
0.117188 0.0234375 0
0.121094 0.0234375 0
0.125 0.0234375 0
0.128906 0.0234375 0
0.132812 0.0234375 0
0.136719 0.0234375 0
0.140625 0.0234375 0
0.144531 0.0234375 0
0.148438 0.0234375 0
0.152344 0.0234375 0
0.15625 0.0234375 0
0.160156 0.0234375 0
0.164062 0.0234375 0
0.167969 0.0234375 0
0.171875 0.0234375 0
0.175781 0.0234375 0
0.179688 0.0234375 0
0.183594 0.0234375 0
0.1875 0.0234375 0
0.191406 0.0234375 0
0.195312 0.0234375 0
0.199219 0.0234375 0
0.203125 0.0234375 0
0.207031 0.0234375 0
0.210938 0.0234375 0
0.214844 0.0234375 0
0.21875 0.0234375 0
0.222656 0.0234375 0
0.226562 0.0234375 0
0.230469 0.0234375 0
0.234375 0.0234375 0
0.238281 0.0234375 0
0.242188 0.0234375 0
0.246094 0.0234375 0
0.25 0.0234375 0
0 0.0273438 0
0.00390625 0.0273438 0
0.0078125 0.0273438 0
0.0117188 0.0273438 0
0.015625 0.0273438 0
0.0195312 0.0273438 0
0.0234375 0.0273438 0
0.0273438 0.0273438 0
0.03125 0.0273438 0
0.0351562 0.0273438 0
0.0390625 0.0273438 0
0.0429688 0.0273438 0
0.046875 0.0273438 0
0.0507812 0.0273438 0
0.0546875 0.0273438 0
0.0585938 0.0273438 0
0.0625 0.0273438 0
0.0664062 0.0273438 0
0.0703125 0.0273438 0
0.0742188 0.0273438 0
0.078125 0.0273438 0
0.0820312 0.0273438 0
0.0859375 0.0273438 0
0.0898438 0.0273438 0
0.09375 0.0273438 0
0.0976562 0.0273438 0
0.101562 0.0273438 0
0.105469 0.0273438 0
0.109375 0.0273438 0
0.113281 0.0273438 0
0.117188 0.0273438 0
0.121094 0.0273438 0
0.125 0.0273438 0
0.128906 0.0273438 0
0.132812 0.0273438 0
0.136719 0.0273438 0
0.140625 0.0273438 0
0.144531 0.0273438 0
0.148438 0.0273438 0
[...]
CELL_DATA 16384
SCALARS solution double
LOOKUP_TABLE default
2.05161
2.05162
2.05157
2.05154
2.05245
2.05358
2.05356
2.05316
2.05172
2.05099
2.05072
2.05038
2.05006
2.04979
2.04952
2.04927
2.04893
2.04869
2.04842
2.04825
2.0482
2.04877
2.04928
2.04941
2.04968
2.05025
2.05051
2.05042
2.05043
2.05047
2.05052
2.05052
2.05057
2.05063
2.0506
2.05043
2.05009
2.04973
2.04902
2.04836
2.04774
2.04728
2.04735
2.04747
2.04779
2.04848
2.04931
2.04961
2.04971
2.04978
2.05023
2.05113
2.05178
2.05273
2.05206
2.05107
2.05127
2.05161
2.05171
2.05172
2.05159
2.05172
2.05169
2.05162
2.05397
2.05375
2.05335
2.05301
2.05253
2.05182
2.05143
2.0516
2.05216
2.05248
2.05254
2.0529
2.05292
2.05331
2.05327
2.05327
2.0532
2.05311
2.05248
2.05264
2.05252
2.05352
2.05445
2.0538
2.05377
2.05476
2.05529
2.05542
2.05575
2.05604
2.05609
2.05595
2.05578
2.05557
2.05519
2.05485
2.05465
2.05451
2.05422
2.05364
2.05286
2.052
2.05185
2.0518
2.05189
2.0525
2.0533
2.05325
2.05278
2.05194
2.05218
2.053
2.0533
2.05308
2.05301
2.053
2.05401
2.05459
2.05462
2.05445
2.05393
2.05415
2.05442
2.05426
2.01473
2.01464
2.0144
2.0142
2.01298
2.01126
2.01089
2.01224
2.01496
2.0165
2.01799
2.01951
2.0209
2.02244
2.02374
2.02575
2.02796
2.0298
2.03117
2.03322
2.0354
2.0384
2.04085
2.04218
2.04375
2.04747
2.05238
2.05499
2.05578
2.05614
2.056
2.0556
2.05518
2.05488
2.05448
2.05414
2.05358
2.0516
2.04885
2.04624
2.04397
2.04177
2.0391
2.03666
2.0342
2.03142
2.02888
2.02647
2.02423
2.02209
2.02064
2.01969
2.01816
2.01627
2.01596
2.01602
2.01604
2.01554
2.01498
2.01445
2.01407
2.01443
2.01484
2.01483
1.97915
1.9793
1.9793
1.9793
1.97934
1.97933
1.97951
1.98105
1.98302
1.98456
1.98696
1.98929
1.99169
1.99412
1.99667
2.00026
2.00426
2.00801
2.01134
2.01521
2.01884
2.0241
2.02867
2.03201
2.03529
2.04171
2.05055
2.05538
2.05825
2.06055
2.06078
2.06048
2.05976
2.05892
2.05791
2.0562
2.05317
2.04934
2.04419
2.03915
2.03511
2.03113
2.02646
2.02218
2.01737
2.0117
2.00689
2.00227
1.99856
1.99531
1.99251
1.9904
1.98776
1.986
1.98434
1.98291
1.98194
1.98025
1.97921
1.97884
1.97871
1.97882
1.97889
1.97899
1.97091
1.97105
1.97118
1.97139
1.9717
1.97198
1.97363
1.97661
1.97915
1.98123
1.98357
1.98609
1.98883
1.99236
1.99568
1.99927
2.00341
2.00744
2.01128
2.01584
2.02003
2.02542
2.03056
2.03496
2.03942
2.0453
2.0533
2.05826
2.06252
2.0665
2.06745
2.06758
2.06719
2.06612
2.06459
2.06108
2.05606
2.05147
2.04658
2.04135
2.03691
2.03287
2.02793
2.02305
2.01783
2.012
2.00696
2.0025
1.99889
1.99562
1.99233
1.98909
1.98562
1.98299
1.98012
1.97759
1.97566
1.97344
1.9717
1.9707
1.97051
1.97052
1.97056
1.97072
1.96233
1.9625
1.96272
1.96315
1.96367
1.96422
1.96703
1.971
1.97378
1.97616
1.97849
1.98117
1.98389
1.98809
1.99207
1.99645
2.00151
2.00638
2.01125
2.01672
2.02177
2.0277
2.03348
2.03925
2.04511
2.05015
2.05733
2.0622
2.06614
2.07037
2.07204
2.07245
2.07274
2.07221
2.07082
2.06655
2.06116
2.05601
2.05077
2.04503
2.03991
2.03539
2.02984
2.02397
2.01826
2.01223
2.00681
2.00207
1.9976
1.99324
1.98916
1.98517
1.98119
1.97804
1.97433
1.97107
1.96847
1.9659
1.96364
1.96208
1.96181
1.9618
1.9619
1.96212
1.95588
1.95593
1.95612
1.95648
1.95701
1.95809
1.9616
1.96559
1.96847
1.9713
1.97447
1.97801
1.98128
1.98551
1.98978
1.99487
2.00056
2.00588
2.01161
2.01705
2.0232
2.03067
2.0374
2.04441
2.05061
2.05487
2.06166
2.06661
2.07038
2.07491
2.07705
2.07762
2.0781
2.07818
2.07703
2.07232
2.06679
2.06136
2.05564
2.04935
2.04312
2.03756
2.0313
2.02462
2.01862
2.01264
2.00664
2.00138
1.99626
1.99103
1.98629
1.98211
1.97798
1.97432
1.97025
1.96689
1.96403
1.96132
1.95888
1.95676
1.95598
1.95583
1.9558
1.95586
1.94923
1.94913
1.94913
1.94931
1.94986
1.95118
1.9553
1.95929
1.96235
1.96579
1.96992
1.97458
1.97907
1.98423
1.98962
1.99556
2.00143
2.00695
2.01284
2.01835
2.02514
2.03363
2.04143
2.04904
2.05541
2.05995
2.06645
2.07184
2.07554
2.08006
2.08229
2.08292
2.08352
2.08376
2.08282
2.07798
2.07239
2.06674
2.06048
2.05353
2.04627
2.03981
2.03334
2.02641
2.02008
2.01373
2.00672
2.00083
1.99542
1.98997
1.98456
1.97976
1.97499
1.97059
1.96645
1.96307
1.95987
1.95699
1.95446
1.95186
1.95054
1.95009
1.94973
1.94943
1.94395
1.94383
1.94374
1.94374
1.944
1.94565
1.95004
1.95386
1.95712
1.96129
1.9661
1.97137
1.97694
1.9829
1.98923
1.99599
2.00246
2.00846
2.01456
2.02043
2.02751
2.0364
2.04452
2.05167
2.05906
2.06518
2.07187
2.07767
2.08141
2.08601
2.08839
2.08899
2.08934
2.08927
2.0882
2.08314
2.07764
2.07201
2.06529
2.05782
2.0501
2.04313
2.03647
2.0291
2.02208
2.01525
2.00741
2.00017
1.99374
1.98782
1.98194
1.97674
1.97159
1.96667
1.96241
1.95898
1.9557
1.95283
1.95022
1.94748
1.94582
1.94506
1.94458
1.94418
1.9391
1.93908
1.93915
1.93924
1.93946
1.94173
1.94612
1.94982
1.9533
1.95799
1.96325
1.96901
1.9753
1.98183
1.98858
1.99556
2.00254
2.00888
2.01538
2.02203
2.02934
2.03875
2.04736
2.05403
2.0624
2.07006
2.07699
2.08331
2.08747
2.09223
2.09477
2.09517
2.09511
2.0945
2.09306
2.08776
2.08237
2.07676
2.06968
2.06207
2.05432
2.04688
2.03969
2.0319
2.02404
2.01656
2.00826
2.00002
1.99242
1.9857
1.97944
1.97393
1.96876
1.9636
1.95905
1.95528
1.9517
1.94858
1.94581
1.94297
1.94099
1.94003
1.93957
1.93923
1.9354
1.93561
1.93591
1.93625
1.93666
1.93962
1.94419
1.94791
1.95143
1.95612
1.96133
1.9672
1.97358
1.98025
1.98707
1.99422
2.00145
2.00818
2.01567
2.02356
2.0312
2.041
2.0504
2.05704
2.06574
2.07423
2.08148
2.08828
2.09305
2.09806
2.10069
2.10085
2.10045
2.09936
2.09758
2.09208
2.08676
2.08093
2.07362
2.0661
2.05827
2.05028
2.04247
2.03427
2.02581
2.01776
2.00914
2.00044
1.99195
1.98443
1.97773
1.97178
1.96638
1.96107
1.95629
1.95225
1.94836
1.94496
1.94201
1.93899
1.93685
1.93591
1.93562
1.93541
1.9325
1.93284
1.93326
1.93371
1.93428
1.93782
1.94277
1.94665
1.95035
1.95516
1.96024
1.96592
1.97202
1.97851
1.98544
1.99289
2.0006
2.00782
2.01631
2.0254
2.03375
2.04364
2.05362
2.06087
2.06966
2.07847
2.08594
2.09288
2.09794
2.10297
2.10567
2.10586
2.10523
2.10402
2.10215
2.09646
2.091
2.08492
2.07742
2.06977
2.06159
2.05299
2.04449
2.03595
2.02702
2.01843
2.00976
2.00089
1.99243
1.98484
1.97775
1.97131
1.9653
1.95953
1.95428
1.94964
1.94525
1.94162
1.93853
1.93552
1.93335
1.93244
1.9324
1.93235
1.93008
1.93049
1.93091
1.9313
1.93209
1.9361
1.94119
1.94514
1.94906
1.95394
1.95903
1.96457
1.9706
1.97711
1.98431
1.99228
2.0007
2.00859
2.01772
2.02779
2.03684
2.04661
2.05693
2.06492
2.07375
2.08249
2.08997
2.09706
2.10226
2.10713
2.10993
2.11023
2.10989
2.1089
2.10715
2.10121
2.09537
2.08903
2.08126
2.07329
2.06454
2.05523
2.04595
2.03707
2.02781
2.01879
2.01031
2.00165
1.99341
1.98603
1.97875
1.97177
1.96507
1.9587
1.95288
1.94758
1.94271
1.93879
1.93559
1.93258
1.93043
1.92954
1.92968
1.92983
1.92714
1.92759
1.92805
1.92849
1.92954
1.9339
1.93891
1.94282
1.94704
1.95212
1.95744
1.96318
1.9696
1.97652
1.98426
1.99275
2.00166
2.01007
2.01946
2.03025
2.04001
2.04973
2.06027
2.06885
2.07757
2.08596
2.09325
2.1004
2.10588
2.11101
2.1141
2.11461
2.11451
2.11385
2.112
2.10587
2.09967
2.09308
2.08497
2.07658
2.06731
2.05751
2.04754
2.03833
2.02903
2.01985
2.01134
2.00275
1.99437
1.98692
1.97942
1.972
1.96485
1.95811
1.95186
1.94614
1.94084
1.93665
1.93326
1.93005
1.92765
1.92654
1.92658
1.92677
1.92385
1.92427
1.92474
1.92528
1.92664
1.93128
1.93618
1.94028
1.94499
1.95041
1.95613
1.9624
1.96948
1.97687
1.98518
1.99389
2.00298
2.01194
2.02142
2.03259
2.04283
2.05275
2.06307
2.07185
2.08077
2.08902
2.09617
2.10343
2.10938
2.11495
2.11837
2.11901
2.11892
2.11836
2.11642
2.11017
2.10361
2.09671
2.08823
2.07944
2.06987
2.05995
2.04989
2.04052
2.03111
2.02167
2.0128
2.00375
1.9948
1.98692
1.97906
1.97137
1.96407
1.95723
1.95098
1.94516
1.93956
1.93508
1.93144
1.92801
1.92527
1.9238
1.92356
1.92354
1.92092
1.92112
1.92145
1.92201
1.92367
1.92866
1.93346
1.93783
1.94308
1.94903
1.95535
1.96217
1.96977
1.97757
1.98627
1.99519
2.00441
2.0138
2.02333
2.03458
2.04497
2.0548
2.06475
2.07377
2.08333
2.09199
2.09934
2.10672
2.11286
2.11856
2.12211
2.12281
2.12284
2.12232
2.12046
2.11397
2.10692
2.09971
2.09107
2.08227
2.07283
2.06318
2.05328
2.04365
2.03378
2.0237
2.01422
2.00458
1.99489
1.98639
1.97819
1.97018
1.9627
1.95572
1.9493
1.94371
1.93832
1.93364
1.92985
1.92628
1.92338
1.92168
1.92114
1.92088
1.91928
1.91909
1.91904
1.91941
1.92149
1.92677
1.93157
1.93622
1.94186
1.94823
1.955
1.9622
1.97008
1.97812
1.98709
1.99618
2.00537
2.01497
2.02477
2.0357
2.04614
2.05605
2.06604
2.07555
2.08565
2.09489
2.10263
2.11009
2.11616
2.1216
2.12499
2.12568
2.12586
2.12556
2.12388
2.11714
2.10977
2.10258
2.09424
2.0858
2.07657
2.06692
2.05679
2.04674
2.03627
2.02561
2.0154
2.00512
1.99474
1.98556
1.97703
1.96879
1.96116
1.95415
1.94765
1.9422
1.93707
1.93248
1.92875
1.92524
1.92236
1.92053
1.91988
1.91955
1.91851
1.91831
1.91819
1.91828
1.92076
1.92597
1.93063
1.93537
1.94118
1.94772
1.95466
1.96206
1.97007
1.97825
1.98736
1.99642
2.00554
2.01531
2.02528
2.03616
2.04684
2.05716
2.06774
2.07793
2.08835
2.0979
2.1059
2.11332
2.11933
2.12439
2.12734
2.12783
2.12796
2.12779
2.12624
2.11955
2.11258
2.10586
2.09777
2.0894
2.08011
2.07026
2.05978
2.04927
2.03844
2.02733
2.01652
2.00572
1.99477
1.98488
1.97607
1.96768
1.95998
1.95308
1.94664
1.94118
1.93616
1.93163
1.92794
1.9245
1.92162
1.91967
1.91892
1.9187
1.9181
1.91823
1.91831
1.91846
1.92124
1.92626
1.93059
1.93514
1.94081
1.94726
1.95415
1.96168
1.96984
1.97826
1.98752
1.99652
2.00568
2.01559
2.02565
2.03668
2.04772
2.05878
2.07018
2.08094
2.09144
2.10099
2.10911
2.11646
2.12234
2.12714
2.12966
2.12977
2.1297
2.12947
2.12842
2.12201
2.11559
2.10916
2.10104
2.09241
2.08274
2.07261
2.06183
2.05106
2.04011
2.02884
2.01771
2.00655
1.99537
1.98514
1.97617
1.96774
1.95993
1.95295
1.94639
1.94074
1.9356
1.93093
1.92719
1.92376
1.92079
1.91871
1.91793
1.91793
1.91739
1.91792
1.91836
1.91875
1.92187
1.92692
1.93096
1.93534
1.94082
1.94704
1.9538
1.96134
1.96961
1.97828
1.9877
1.99694
2.00631
2.01654
2.02679
2.03804
2.04935
2.06089
2.07264
2.08358
2.09415
2.10374
2.1119
2.11913
2.12489
2.12961
2.13199
2.1319
2.13176
2.13155
2.13092
2.12488
2.11849
2.11198
2.10354
2.09442
2.08425
2.0738
2.06272
2.05175
2.04077
2.02968
2.01883
2.00809
1.99724
1.98712
1.97794
1.96919
1.9609
1.95346
1.94647
1.94037
1.93491
1.92989
1.92585
1.92229
1.91929
1.9173
1.91662
1.91685
1.91621
1.91691
1.91761
1.91824
1.92178
1.92703
1.93103
1.93535
1.94075
1.94681
1.95352
1.96114
1.96946
1.97843
1.98817
1.99787
2.00783
2.01844
2.02919
2.04065
2.05185
2.06324
2.07478
2.08557
2.09615
2.10571
2.11378
2.12106
2.12691
2.13178
2.1343
2.13443
2.13455
2.13454
2.13407
2.12793
2.12095
2.11401
2.10506
2.0955
2.085
2.07433
2.06299
2.0519
2.04099
2.03026
2.01991
2.00979
1.99945
1.98939
1.97995
1.97081
1.96208
1.95422
1.94681
1.94025
1.93438
1.92893
1.92454
1.92078
1.91772
1.91586
1.91529
1.9156
1.91469
1.91517
1.91571
1.91637
1.92018
1.92575
1.9301
1.93475
1.94032
1.94647
1.95331
1.96114
1.9696
1.97889
1.98893
1.99912
2.00976
2.02072
2.03191
2.04351
2.05459
2.06571
2.07673
2.08701
2.09724
2.10662
2.11476
2.1223
2.12862
2.13398
2.13683
2.13719
2.13741
2.13743
2.13691
2.13039
2.12287
2.11555
2.10628
2.09645
2.08571
2.07485
2.06342
2.05239
2.04154
2.03103
2.02078
2.01066
2.00049
1.99051
1.98101
1.97176
1.96285
1.95483
1.94719
1.94026
1.93412
1.92839
1.92369
1.91975
1.91659
1.91472
1.91412
1.91431
1.91301
1.91322
1.91362
1.91423
1.91817
1.92389
1.92847
1.93365
1.93971
1.94625
1.95342
1.96151
1.97015
1.97961
1.98979
2.00031
2.01134
2.02262
2.03422
2.04597
2.05688
2.06761
2.07809
2.08793
2.09788
2.10713
2.1155
2.12349
2.13029
2.13608
2.13921
2.1397
2.1398
2.13957
2.13866
2.13185
2.12417
2.11683
2.10766
2.09792
2.08718
2.07635
2.06496
2.05384
2.04279
2.03194
2.02132
2.01082
2.00049
1.99041
1.98095
1.97177
1.9628
1.95471
1.947
1.93993
1.93376
1.92805
1.92332
1.91931
1.91603
1.91391
1.91304
1.91292
1.91156
1.91153
1.9118
1.91238
1.91642
1.92223
1.92699
1.93266
1.93928
1.94635
1.95392
1.96223
1.97102
1.98049
1.9906
2.00097
2.01196
2.02329
2.03501
2.04683
2.05785
2.06852
2.07893
2.0888
2.09876
2.10805
2.11673
2.12492
2.13185
2.13779
2.14105
2.14149
2.14133
2.14057
2.13932
2.13246
2.12489
2.11805
2.10958
2.10039
2.08981
2.07909
2.06757
2.05601
2.04442
2.03305
2.02199
2.01113
2.00054
1.99023
1.9806
1.97138
1.96236
1.95409
1.94627
1.93919
1.93314
1.92773
1.92321
1.91924
1.91578
1.91335
1.91217
1.91176
1.9112
1.91105
1.91111
1.91152
1.91561
1.92136
1.92618
1.93217
1.93911
1.94649
1.95435
1.96286
1.97173
1.98108
1.99098
2.00107
2.01177
2.02308
2.03483
2.04672
2.058
2.06907
2.0799
2.09018
2.10043
2.1099
2.11856
2.12654
2.13317
2.1389
2.142
2.1423
2.14191
2.14097
2.13968
2.13289
2.12556
2.11917
2.11123
2.10252
2.09224
2.08166
2.06997
2.05813
2.04618
2.03451
2.02315
2.01195
2.00091
1.99022
1.98025
1.97088
1.96185
1.95357
1.94588
1.93898
1.9331
1.92783
1.92345
1.91948
1.91596
1.9134
1.91209
1.91156
1.91177
1.91178
1.91196
1.91245
1.91659
1.92215
1.92681
1.93269
1.93947
1.94672
1.95453
1.96304
1.9719
1.98121
1.99102
2.00108
2.01174
2.02307
2.03492
2.04689
2.05853
2.07016
2.08161
2.09235
2.10272
2.11211
2.12061
2.12823
2.13438
2.13972
2.14243
2.14251
2.14216
2.14133
2.14025
2.13377
2.1265
2.12015
2.1122
2.10358
2.09353
2.08328
2.07177
2.05999
2.04796
2.03604
2.02429
2.0127
2.00133
1.99026
1.98005
1.97068
1.96186
1.95384
1.94638
1.93958
1.93365
1.92829
1.92376
1.91969
1.91622
1.91366
1.91243
1.91202
1.91238
1.91268
1.9131
1.9138
1.91804
1.9235
1.92801
1.93367
1.94012
1.94707
1.95477
1.96318
1.97198
1.98138
1.99125
2.00142
2.01221
2.02365
2.03559
2.04769
2.05968
2.07166
2.08335
2.09439
2.10482
2.11408
2.1224
2.12972
2.13546
2.14031
2.14261
2.1427
2.14263
2.14225
2.1416
2.13528
2.12776
2.12122
2.11295
2.10409
2.09398
2.08386
2.07263
2.06118
2.04924
2.03711
2.02511
2.01321
2.00168
1.99051
1.98028
1.97104
1.96243
1.95448
1.94702
1.94013
1.93401
1.92843
1.92364
1.91943
1.91602
1.9136
1.91256
1.91238
1.91279
1.91326
1.91384
1.91477
1.91914
1.92452
1.92884
1.93431
1.94052
1.94737
1.95513
1.96358
1.97247
1.98209
1.99216
2.0025
2.01329
2.02472
2.03657
2.04871
2.06087
2.07297
2.08471
2.09591
2.10637
2.11553
2.1236
2.13059
2.13614
2.14071
2.14286
2.14325
2.14372
2.14385
2.14353
2.13723
2.12948
2.12256
2.11376
2.10449
2.09422
2.08398
2.07278
2.06149
2.04973
2.03766
2.02563
2.01379
2.00227
1.99127
1.98109
1.9718
1.96304
1.95489
1.94725
1.94014
1.9338
1.92804
1.92311
1.9189
1.91559
1.91337
1.91253
1.91258
1.91296
1.91343
1.91403
1.9151
1.91943
1.92468
1.92883
1.93423
1.94035
1.94724
1.95517
1.96391
1.97315
1.98312
1.99351
2.00414
2.01494
2.02613
2.03776
2.04964
2.06177
2.07387
2.08556
2.09673
2.10704
2.11607
2.12401
2.13083
2.13638
2.14105
2.14352
2.14428
2.14503
2.14543
2.1453
2.13906
2.13105
2.12387
2.11474
2.10507
2.09447
2.084
2.07274
2.06147
2.04987
2.0381
2.02649
2.01501
2.00376
1.99288
1.98255
1.97292
1.96378
1.95527
1.94736
1.94004
1.93355
1.92767
1.92267
1.91853
1.91531
1.91324
1.91252
1.91267
1.91263
1.91308
1.91374
1.91484
1.91912
1.92434
1.92846
1.93391
1.94004
1.94697
1.955
1.96391
1.97348
1.98389
1.99465
2.00568
2.01657
2.02774
2.03924
2.05077
2.06257
2.07438
2.08575
2.09669
2.10689
2.11596
2.12409
2.13105
2.13693
2.14204
2.14481
2.14553
2.14617
2.1464
2.14632
2.1401
2.13223
2.12506
2.11581
2.10593
2.09497
2.08415
2.07282
2.06161
2.05016
2.03869
2.02756
2.01644
2.00542
1.99464
1.98408
1.97409
1.96462
1.9558
1.9477
1.94023
1.93363
1.92768
1.92266
1.91848
1.9152
1.913
1.91217
1.91231
1.91204
1.91249
1.91321
1.9143
1.91852
1.92383
1.92806
1.93364
1.93986
1.94685
1.95496
1.96394
1.9736
1.98414
1.99515
2.0065
2.01763
2.02901
2.04053
2.0518
2.06312
2.07445
2.08546
2.09628
2.10655
2.11584
2.1245
2.13197
2.13826
2.14361
2.14636
2.14689
2.14709
2.1469
2.14652
2.14037
2.13275
2.12599
2.11689
2.10703
2.09601
2.0852
2.07381
2.06252
2.05103
2.03955
2.0285
2.0174
2.00637
1.99562
1.98494
1.97482
1.9653
1.95642
1.94826
1.9408
1.93418
1.92822
1.92311
1.91876
1.91523
1.91274
1.91172
1.91174
1.91164
1.9121
1.91273
1.91373
1.91805
1.92341
1.92779
1.93357
1.93997
1.94706
1.95521
1.96418
1.97382
1.98427
1.99521
2.00647
2.01766
2.02923
2.04101
2.05235
2.06348
2.07455
2.08542
2.0962
2.1066
2.11632
2.12545
2.13323
2.13962
2.14491
2.14746
2.14765
2.14748
2.14695
2.14641
2.14023
2.13269
2.12629
2.11761
2.1082
2.0975
2.08677
2.07534
2.06385
2.05217
2.04041
2.02906
2.01769
2.00646
1.9956
1.9849
1.97483
1.96539
1.95659
1.94859
1.94132
1.93482
1.92891
1.92377
1.91933
1.91564
1.91296
1.91174
1.91153
1.91184
1.91208
1.9126
1.91354
1.91807
1.92352
1.92811
1.93412
1.9407
1.94787
1.95593
1.96472
1.97411
1.98421
1.99487
2.00588
2.01703
2.02866
2.04072
2.05251
2.06397
2.07525
2.08634
2.09724
2.10764
2.11741
2.1266
2.13434
2.14051
2.14539
2.14755
2.14753
2.14735
2.14687
2.14635
2.14014
2.13258
2.12632
2.11794
2.10901
2.09872
2.08821
2.07686
2.06512
2.05311
2.04104
2.02937
2.01776
2.00634
1.99543
1.98476
1.97472
1.9653
1.95654
1.94864
1.94154
1.9352
1.92941
1.92433
1.91997
1.91628
1.9136
1.91236
1.91201
1.91225
1.9123
1.9127
1.91367
1.91839
1.92397
1.92883
1.9351
1.94194
1.9493
1.95728
1.96579
1.9747
1.98423
1.99447
2.00528
2.01647
2.02834
2.04062
2.05289
2.06501
2.0767
2.08801
2.09895
2.10923
2.11875
2.12761
2.13497
2.14085
2.14546
2.14748
2.14743
2.14726
2.14691
2.14654
2.1404
2.13291
2.12685
2.11855
2.10969
2.09944
2.08892
2.07754
2.06572
2.05368
2.04157
2.02979
2.01807
2.00657
1.99565
1.98499
1.97493
1.9655
1.95673
1.94882
1.94173
1.9354
1.92968
1.92468
1.92046
1.91685
1.91424
1.91297
1.91251
1.91236
1.91245
1.91282
1.91377
1.91859
1.9243
1.92933
1.93576
1.9428
1.95037
1.95842
1.96682
1.97547
1.98464
1.99461
2.00532
2.01661
2.02874
2.04117
2.05368
2.06616
2.07816
2.08968
2.10063
2.11071
2.11985
2.12812
2.13505
2.14088
2.1456
2.14769
2.14765
2.14746
2.14708
2.14683
2.14095
2.13375
2.12787
2.11951
2.11043
2.09982
2.089
2.07749
2.06568
2.05375
2.04181
2.03021
2.01868
2.00735
1.99652
1.98591
1.9758
1.96625
1.95731
1.94924
1.94192
1.93537
1.92957
1.92458
1.92044
1.91688
1.91429
1.91299
1.91253
1.91222
1.9124
1.91284
1.91379
1.91859
1.92429
1.92933
1.93572
1.94278
1.95048
1.95856
1.96712
1.97602
1.98535
1.99549
2.00639
2.01775
2.02986
2.04219
2.05469
2.06717
2.07917
2.09078
2.10163
2.11148
2.12027
2.12828
2.13514
2.14096
2.14596
2.1482
2.14822
2.14798
2.14752
2.14729
2.14147
2.13439
2.12858
2.12009
2.11081
2.10001
2.08904
2.07755
2.06571
2.05382
2.04202
2.03057
2.01925
2.00817
1.99741
1.98682
1.97666
1.96696
1.95777
1.9494
1.94173
1.9349
1.92904
1.92407
1.91998
1.91644
1.91389
1.91263
1.91226
1.91199
1.91219
1.91257
1.91352
1.91833
1.92404
1.92907
1.93542
1.94243
1.95015
1.95828
1.96706
1.97634
1.98615
1.99664
2.00784
2.01931
2.03129
2.04341
2.05568
2.06785
2.07963
2.09101
2.10166
2.11141
2.12027
2.12844
2.13546
2.14144
2.14657
2.14885
2.14897
2.14881
2.14842
2.14814
2.14203
2.13461
2.12852
2.11991
2.1108
2.10023
2.08937
2.07798
2.06628
2.05447
2.04267
2.03109
2.01967
2.00849
1.99759
1.98694
1.9767
1.96692
1.95761
1.94914
1.94136
1.93438
1.92845
1.92348
1.91941
1.91588
1.91338
1.91223
1.91195
1.91171
1.91192
1.91225
1.91324
1.91803
1.92367
1.92865
1.93492
1.9419
1.94961
1.95795
1.96697
1.97675
1.98698
1.99777
2.00913
2.02064
2.03241
2.04432
2.05636
2.06823
2.07972
2.09087
2.10141
2.11115
2.12023
2.1288
2.13604
2.14218
2.14736
2.14968
2.14993
2.14994
2.14967
2.14928
2.14273
2.13471
2.12813
2.11936
2.11053
2.10052
2.09008
2.07903
2.06756
2.05583
2.04391
2.03195
2.01997
2.00819
1.99691
1.9861
1.9759
1.96629
1.95715
1.94876
1.94098
1.93401
1.92801
1.92293
1.91884
1.9153
1.91287
1.91185
1.91162
1.9116
1.91186
1.91226
1.91326
1.91795
1.92342
1.92823
1.93435
1.94117
1.94888
1.95742
1.9668
1.97708
1.98771
1.9987
2.01004
2.02137
2.03287
2.04458
2.05646
2.06818
2.07957
2.09065
2.10119
2.11111
2.12051
2.12925
2.13653
2.1428
2.14803
2.15051
2.15097
2.15112
2.15082
2.15012
2.1433
2.13498
2.12809
2.11925
2.11061
2.10107
2.09092
2.08013
2.06889
2.05713
2.04504
2.03265
2.02011
2.00791
1.99635
1.98545
1.97529
1.96581
1.95677
1.94844
1.9407
1.93372
1.92769
1.92253
1.9184
1.91483
1.91241
1.91151
1.91139
1.91205
1.91253
1.91304
1.914
1.91856
1.92372
1.92817
1.93396
1.94055
1.9482
1.95682
1.96638
1.97695
1.98792
1.99905
2.01028
2.02148
2.03279
2.04437
2.05611
2.06777
2.07926
2.09055
2.10137
2.11159
2.12116
2.12978
2.13699
2.1432